 vasp.6.5.1 10Mar25 (build Nov 30 2025 20:38:51) complex                         
 executed on              LinuxNV date 2025.12.05  11:00:02
 running    1 mpi-ranks, with    2 threads/rank, on    1 nodes
 distrk:  each k-point on    1 cores,    1 groups
 distr:  one band on NCORE=   1 cores,    1 groups
 Offloading initialized ...    1 GPUs detected


--------------------------------------------------------------------------------------------------------


 INCAR:
   SYSTEM = Iβ_cellulose
   ISYM = 0
   PREC = Normal
   IVDW = 12
   ISMEAR = 0
   SIGMA = 0.05
   ENCUT = 450
   EDIFF = 1e-6
   ALGO = Fast
   GGA = PE
   ISTART = 0
   LWAVE = F
   LCHARG = F
   LREAL = Auto
   IBRION = 0
   NSW = 10000
   POTIM = 0.5
   MDALGO = 4
   ISIF = 2

 POTCAR:    PAW_PBE C 08Apr2002                   
 POTCAR:    PAW_PBE H 15Jun2001                   
 POTCAR:    PAW_PBE O 08Apr2002                   
 POTCAR:    PAW_PBE C 08Apr2002                   
   SHA256 =  253f7b50bb8d59471dbedb8285d89021f4a42ed1a2c5d38a03a736e69125dd95 C/POTCAR              
   COPYR  = (c) Copyright 08Apr2002 Georg Kresse                                                    
   COPYR  = This file is part of the software VASP. Any use, copying, and all other rights are regul
   COPYR  = If you do not have a valid VASP license, you may not use, copy or distribute this file. 
   VRHFIN =C: s2p2                                                                                  
   LEXCH  = PE                                                                                      
   EATOM  =   147.1560 eV,   10.8157 Ry                                                             
                                                                                                    
   TITEL  = PAW_PBE C 08Apr2002                                                                     
   LULTRA =        F    use ultrasoft PP ?                                                          
   IUNSCR =        1    unscreen: 0-lin 1-nonlin 2-no                                               
   RPACOR =    1.200    partial core radius                                                         
   POMASS =   12.011; ZVAL   =    4.000    mass and valenz                                          
   RCORE  =    1.500    outmost cutoff radius                                                       
   RWIGS  =    1.630; RWIGS  =    0.863    wigner-seitz radius (au A)                               
   ENMAX  =  400.000; ENMIN  =  300.000 eV                                                          
   ICORE  =        2    local potential                                                             
   LCOR   =        T    correct aug charges                                                         
   LPAW   =        T    paw PP                                                                      
   EAUG   =  644.873                                                                                
   DEXC   =    0.000                                                                                
   RMAX   =    1.529    core radius for proj-oper                                                   
   RAUG   =    1.300    factor for augmentation sphere                                              
   RDEP   =    1.501    radius for radial grids                                                     
   RDEPT  =    1.300    core radius for aug-charge                                                  
                                                                                                    
   Atomic configuration                                                                             
    4 entries                                                                                       
     n  l   j            E        occ.                                                              
     1  0  0.50      -273.3789   2.0000                                                             
     2  0  0.50       -13.7508   2.0000                                                             
     2  1  0.50        -5.2854   2.0000                                                             
     3  2  1.50        -5.4423   0.0000                                                             
   Description                                                                                      
     l       E           TYP  RCUT    TYP  RCUT                                                     
     0    -13.7508458     23  1.200                                                                 
     0     -8.2022199     23  1.200                                                                 
     1     -5.2854383     23  1.500                                                                 
     1     34.0145650     23  1.500                                                                 
     2     -5.4423304      7  1.500                                                                 
  local pseudopotential read in
  partial core-charges read in
  partial kinetic energy density read in
  atomic valenz-charges read in
  non local Contribution for L=            0  read in
    real space projection operators read in
  non local Contribution for L=            0  read in
    real space projection operators read in
  non local Contribution for L=            1  read in
    real space projection operators read in
  non local Contribution for L=            1  read in
    real space projection operators read in
    PAW grid and wavefunctions read in
 
   number of l-projection  operators is LMAX  =            4
   number of lm-projection operators is LMMAX =            8
 
 POTCAR:    PAW_PBE H 15Jun2001                   
   SHA256 =  030f79b5d3ab3cf0e668861823c8fb652ff669f3e15e46930bd03bfd63a607b6 H/POTCAR              
   COPYR  = (c) Copyright 15Jun2001 Georg Kresse                                                    
   COPYR  = This file is part of the software VASP. Any use, copying, and all other rights are regul
   COPYR  = If you do not have a valid VASP license, you may not use, copy or distribute this file. 
   VRHFIN =H: ultrasoft test                                                                        
   LEXCH  = PE                                                                                      
   EATOM  =    12.4884 eV,    0.9179 Ry                                                             
                                                                                                    
   TITEL  = PAW_PBE H 15Jun2001                                                                     
   LULTRA =        F    use ultrasoft PP ?                                                          
   IUNSCR =        0    unscreen: 0-lin 1-nonlin 2-no                                               
   RPACOR =    0.000    partial core radius                                                         
   POMASS =    1.000; ZVAL   =    1.000    mass and valenz                                          
   RCORE  =    1.100    outmost cutoff radius                                                       
   RWIGS  =    0.700; RWIGS  =    0.370    wigner-seitz radius (au A)                               
   ENMAX  =  250.000; ENMIN  =  200.000 eV                                                          
   RCLOC  =    0.701    cutoff for local pot                                                        
   LCOR   =        T    correct aug charges                                                         
   LPAW   =        T    paw PP                                                                      
   EAUG   =  400.000                                                                                
   RMAX   =    1.123    core radius for proj-oper                                                   
   RAUG   =    1.200    factor for augmentation sphere                                              
   RDEP   =    1.112    radius for radial grids                                                     
   RDEPT  =    0.926    core radius for aug-charge                                                  
                                                                                                    
   Atomic configuration                                                                             
    2 entries                                                                                       
     n  l   j            E        occ.                                                              
     1  0  0.50        -6.4927   1.0000                                                             
     2  1  0.50        -3.4015   0.0000                                                             
   Description                                                                                      
     l       E           TYP  RCUT    TYP  RCUT                                                     
     0     -6.4927494     23  1.100                                                                 
     0      6.8029130     23  1.100                                                                 
     1     -4.0817478     23  1.100                                                                 
  local pseudopotential read in
  atomic valenz-charges read in
  non local Contribution for L=            0  read in
    real space projection operators read in
  non local Contribution for L=            0  read in
    real space projection operators read in
  non local Contribution for L=            1  read in
    real space projection operators read in
    PAW grid and wavefunctions read in
 
   number of l-projection  operators is LMAX  =            3
   number of lm-projection operators is LMMAX =            5
 
 POTCAR:    PAW_PBE O 08Apr2002                   
   SHA256 =  818f92134a0a090dccd8ba1447fa70422a3b330e708bb4f08108d8ae51209ddf O/POTCAR              
   COPYR  = (c) Copyright 08Apr2002 Georg Kresse                                                    
   COPYR  = This file is part of the software VASP. Any use, copying, and all other rights are regul
   COPYR  = If you do not have a valid VASP license, you may not use, copy or distribute this file. 
   VRHFIN =O: s2p4                                                                                  
   LEXCH  = PE                                                                                      
   EATOM  =   432.3788 eV,   31.7789 Ry                                                             
                                                                                                    
   TITEL  = PAW_PBE O 08Apr2002                                                                     
   LULTRA =        F    use ultrasoft PP ?                                                          
   IUNSCR =        1    unscreen: 0-lin 1-nonlin 2-no                                               
   RPACOR =    1.200    partial core radius                                                         
   POMASS =   16.000; ZVAL   =    6.000    mass and valenz                                          
   RCORE  =    1.520    outmost cutoff radius                                                       
   RWIGS  =    1.550; RWIGS  =    0.820    wigner-seitz radius (au A)                               
   ENMAX  =  400.000; ENMIN  =  300.000 eV                                                          
   ICORE  =        2    local potential                                                             
   LCOR   =        T    correct aug charges                                                         
   LPAW   =        T    paw PP                                                                      
   EAUG   =  605.392                                                                                
   DEXC   =    0.000                                                                                
   RMAX   =    1.553    core radius for proj-oper                                                   
   RAUG   =    1.300    factor for augmentation sphere                                              
   RDEP   =    1.550    radius for radial grids                                                     
   RDEPT  =    1.329    core radius for aug-charge                                                  
                                                                                                    
   Atomic configuration                                                                             
    4 entries                                                                                       
     n  l   j            E        occ.                                                              
     1  0  0.50      -514.6923   2.0000                                                             
     2  0  0.50       -23.9615   2.0000                                                             
     2  1  0.50        -9.0305   4.0000                                                             
     3  2  1.50        -9.5241   0.0000                                                             
   Description                                                                                      
     l       E           TYP  RCUT    TYP  RCUT                                                     
     0    -23.9615318     23  1.200                                                                 
     0     -9.5240782     23  1.200                                                                 
     1     -9.0304911     23  1.520                                                                 
     1      8.1634956     23  1.520                                                                 
     2     -9.5240782      7  1.500                                                                 
  local pseudopotential read in
  partial core-charges read in
  partial kinetic energy density read in
  kinetic energy density of atom read in
  atomic valenz-charges read in
  non local Contribution for L=            0  read in
    real space projection operators read in
  non local Contribution for L=            0  read in
    real space projection operators read in
  non local Contribution for L=            1  read in
    real space projection operators read in
  non local Contribution for L=            1  read in
    real space projection operators read in
    PAW grid and wavefunctions read in
 
   number of l-projection  operators is LMAX  =            4
   number of lm-projection operators is LMMAX =            8
 
 Optimization of the real space projectors (new method)

 maximal supplied QI-value         = 25.13
 optimisation between [QCUT,QGAM] = [ 10.81, 21.61] = [ 32.71,130.83] Ry 
 Optimized for a Real-space Cutoff    1.23 Angstroem

   l    n(q)    QCUT    max X(q) W(low)/X(q) W(high)/X(q)  e(spline) 
   0      8    10.807   115.676    0.36E-03    0.72E-03    0.24E-06
   0      8    10.807    87.132    0.35E-03    0.71E-03    0.24E-06
   1      7    10.807     4.429    0.19E-03    0.39E-03    0.11E-06
   1      7    10.807     2.733    0.14E-03    0.28E-03    0.13E-06
 Optimization of the real space projectors (new method)

 maximal supplied QI-value         = 34.20
 optimisation between [QCUT,QGAM] = [ 10.60, 21.55] = [ 31.48,130.03] Ry 
 Optimized for a Real-space Cutoff    1.23 Angstroem

   l    n(q)    QCUT    max X(q) W(low)/X(q) W(high)/X(q)  e(spline) 
   0      8    10.603    19.460    0.37E-03    0.59E-03    0.23E-06
   0      8    10.603    12.209    0.35E-03    0.56E-03    0.22E-06
   1      7    10.603     4.655    0.70E-04    0.28E-03    0.29E-06
 Optimization of the real space projectors (new method)

 maximal supplied QI-value         = 24.76
 optimisation between [QCUT,QGAM] = [ 10.64, 21.54] = [ 31.73,129.89] Ry 
 Optimized for a Real-space Cutoff    1.23 Angstroem

   l    n(q)    QCUT    max X(q) W(low)/X(q) W(high)/X(q)  e(spline) 
   0      8    10.645    20.381    0.38E-03    0.60E-03    0.15E-06
   0      8    10.645    15.268    0.40E-03    0.65E-03    0.17E-06
   1      7    10.645     5.964    0.30E-03    0.63E-03    0.18E-06
   1      7    10.645     5.382    0.24E-03    0.53E-03    0.16E-06
  PAW_PBE C 08Apr2002                   :
 energy of atom  1       EATOM= -147.1560
 kinetic energy error for atom=    0.0116 (will be added to EATOM!!)
  PAW_PBE H 15Jun2001                   :
 energy of atom  2       EATOM=  -12.4884
 kinetic energy error for atom=    0.0045 (will be added to EATOM!!)
  PAW_PBE O 08Apr2002                   :
 energy of atom  3       EATOM= -432.3788
 kinetic energy error for atom=    0.0389 (will be added to EATOM!!)
 
 
 POSCAR: C  H  O
  positions in cartesian coordinates
  No initial velocities read in
 IVDW         = 12
 VDW_S6       =    1.0000
 VDW_S8       =    0.7875
 VDW_A1       =    0.4289
 VDW_A2       =    4.4407
 VDW_RADIUS   =   50.2022 A
 VDW_CNRADIUS =   21.1671 A



  MD-specific parameters
                MDALGO =   4
           NHC_NCHAINS =   0
            NHC_PERIOD =    40
            NHC_NRESPA =    1
                NHC_NS =  1
                 CNEXP =     9.000   14.000
 exchange-correlation table for PE
   RHO(1)=    0.500       N(1)  =     2000
   RHO(2)=  100.500       N(2)  =     4000
 


--------------------------------------------------------------------------------------------------------


 ion  position               nearest neighbor table
   1  0.000  0.000  0.000-  25 1.11  70 1.42  68 1.43   2 1.53
   2  0.905  0.858  0.960-  26 1.12  65 1.43   3 1.51   1 1.53
   3  0.772  0.905  0.026-  27 1.13  66 1.44   2 1.51   4 1.52
   4  0.732  0.072  0.979-  28 1.13  67 1.44   5 1.50   3 1.52
   5  0.834  0.201  0.012-  29 1.13  68 1.44   4 1.50   6 1.52
   6  0.804  0.361  0.939-  30 1.10  31 1.11  69 1.42   5 1.52
   7  0.500  0.084  0.972-  64 1.11  67 1.42  73 1.42   8 1.53
   8  0.405  0.226  0.012-  32 1.12  71 1.43   9 1.51   7 1.53
   9  0.272  0.179  0.946-  33 1.12  72 1.44   8 1.51  10 1.52
  10  0.232  0.012  0.993-  34 1.13  70 1.44  11 1.50   9 1.52
  11  0.334  0.883  0.960-  35 1.12  73 1.44  10 1.50  12 1.52
  12  0.304  0.723  0.033-  36 1.11  37 1.11  74 1.42  11 1.52
  13  0.261  0.497  0.519-  38 1.11  78 1.41  80 1.43  14 1.52
  14  0.166  0.360  0.461-  39 1.12  75 1.43  15 1.51  13 1.52
  15  0.033  0.405  0.531-  40 1.12  76 1.42  14 1.51  16 1.53
  16  0.994  0.568  0.468-  41 1.11  77 1.44  15 1.53  17 1.54
  17  0.096  0.699  0.527-  42 1.11  78 1.42  16 1.54  18 1.56
  18  0.069  0.857  0.438-  43 1.10  44 1.11  79 1.42  17 1.56
  19  0.761  0.587  0.453-  45 1.11  83 1.41  77 1.43  20 1.52
  20  0.666  0.724  0.511-  46 1.13  81 1.43  21 1.51  19 1.52
  21  0.533  0.679  0.441-  47 1.11  82 1.42  20 1.51  22 1.53
  22  0.494  0.516  0.504-  48 1.11  80 1.44  21 1.53  23 1.54
  23  0.596  0.385  0.445-  49 1.11  83 1.42  22 1.54  24 1.56
  24  0.569  0.227  0.534-  50 1.10  51 1.11  84 1.42  23 1.56
  25  0.019  0.033  0.140-   1 1.11
  26  0.904  0.812  0.819-   2 1.12
  27  0.768  0.905  0.171-   3 1.13
  28  0.710  0.055  0.835-   4 1.13
  29  0.855  0.227  0.154-   5 1.13
  30  0.769  0.346  0.804-   6 1.10
  31  0.889  0.443  0.949-   6 1.11
  32  0.402  0.270  0.154-   8 1.12
  33  0.268  0.180  0.802-   9 1.12
  34  0.211  0.028  0.137-  10 1.13
  35  0.354  0.856  0.818-  11 1.12
  36  0.279  0.740  0.172-  12 1.11
  37  0.385  0.635  0.015-  12 1.11
  38  0.281  0.511  0.660-  13 1.11
  39  0.166  0.331  0.316-  14 1.12
  40  0.031  0.415  0.675-  15 1.12
  41  0.983  0.554  0.325-  16 1.11
  42  0.097  0.728  0.670-  17 1.11
  43  0.026  0.828  0.309-  18 1.10
  44  0.159  0.928  0.429-  18 1.11
  45  0.782  0.573  0.312-  19 1.11
  46  0.663  0.745  0.656-  20 1.13
  47  0.528  0.676  0.298-  21 1.11
  48  0.483  0.529  0.647-  22 1.11
  49  0.596  0.354  0.303-  23 1.11
  50  0.541  0.258  0.670-  24 1.10
  51  0.655  0.146  0.524-  24 1.11
  52  0.891  0.640  0.042-  65 0.99
  53  0.602  0.796  0.030-  66 0.99
  54  0.686  0.396  0.142-  69 0.99
  55  0.541  0.391  0.973-  71 0.99
  56  0.216  0.412  0.994-  72 0.99
  57  0.120  0.695  0.964-  74 0.99
  58  0.166  0.189  0.623-  75 0.98
  59  0.863  0.295  0.526-  76 0.99
  60  0.010  0.019  0.631-  79 0.98
  61  0.798  0.896  0.501-  81 0.99
  62  0.378  0.770  0.569-  82 0.98
  63  0.391  0.186  0.454-  84 0.98
  64  0.519  0.051  0.832-   7 1.11
  65  0.956  0.728  0.047-  52 0.99   2 1.43
  66  0.681  0.781  0.959-  53 0.99   3 1.44
  67  0.614  0.128  0.065-   7 1.42   4 1.44
  68  0.951  0.141  0.930-   1 1.43   5 1.44
  69  0.703  0.445  0.034-  54 0.99   6 1.42
  70  0.114  0.956  0.907-   1 1.42  10 1.44
  71  0.456  0.356  0.925-  55 0.99   8 1.43
  72  0.181  0.303  0.013-  56 0.99   9 1.44
  73  0.451  0.943  0.042-   7 1.42  11 1.44
  74  0.203  0.639  0.938-  57 0.99  12 1.42
  75  0.209  0.208  0.514-  58 0.98  14 1.43
  76  0.949  0.275  0.472-  59 0.99  15 1.42
  77  0.876  0.628  0.549-  19 1.43  16 1.44
  78  0.221  0.649  0.471-  13 1.41  17 1.42
  79  0.974  0.956  0.528-  60 0.98  18 1.42
  80  0.376  0.456  0.423-  13 1.43  22 1.44
  81  0.709  0.876  0.458-  61 0.99  20 1.43
  82  0.449  0.809  0.500-  62 0.98  21 1.42
  83  0.721  0.435  0.501-  19 1.41  23 1.42
  84  0.474  0.128  0.444-  63 0.98  24 1.42
 

IMPORTANT INFORMATION: All symmetrisations will be switched off!
NOSYMM: (Re-)initialisation of all symmetry stuff for point group C_1.


----------------------------------------------------------------------------------------

                                     Primitive cell                                     

  volume of cell :     658.2607

  direct lattice vectors                    reciprocal lattice vectors
    10.379998696  0.000000000  0.000000000     0.096339126 -0.000000001  0.000000004
     0.000000066  8.200478354  0.000000000    -0.000000000  0.121944106  0.013995051
    -0.000000294 -0.887513773  7.733239105     0.000000000  0.000000000  0.129311920

  length of vectors
    10.379998696  8.200478354  7.784000755     0.096339126  0.122744557  0.129311920

  position of ions in fractional coordinates (direct lattice)
     0.000000000  0.000000000  0.000000000
     0.905105872  0.857984521  0.960073929
     0.771965204  0.904995688  0.026101037
     0.731791798  0.071928344  0.978963588
     0.833525925  0.200932906  0.012059553
     0.803757130  0.360991837  0.939045055
     0.499999832  0.083957315  0.972057956
     0.405105922  0.226095529  0.011998862
     0.271965285  0.179084339  0.945971644
     0.231791853  0.012028952  0.992965941
     0.333525948  0.883024486  0.959998433
     0.303757153  0.722965544  0.033012906
     0.261078940  0.496992838  0.518973317
     0.166184873  0.359764435  0.460994327
     0.033236852  0.405057175  0.531054545
     0.994219485  0.568061965  0.468028979
     0.095568242  0.699398632  0.526970360
     0.069267664  0.857002671  0.437987833
     0.761078803  0.586964688  0.452956330
     0.666184851  0.724192896  0.510935282
     0.533236903  0.679022875  0.441018308
     0.494219704  0.516018222  0.504043771
     0.595568482  0.384558779  0.444959216
     0.569267882  0.226954771  0.534070195
     0.019057573  0.032792292  0.140336570
     0.904302295  0.811924077  0.819101538
     0.767684423  0.905192962  0.170968550
     0.710274869  0.055497323  0.835461897
     0.854730909  0.227237886  0.154400449
     0.769394977  0.346347092  0.803816864
     0.888731334  0.443160678  0.949232194
     0.402473702  0.269604423  0.153531304
     0.268453821  0.180458306  0.802267339
     0.210508615  0.028035390  0.136634659
     0.353575732  0.855874216  0.818114827
     0.278639059  0.740334222  0.172127220
     0.385108953  0.635281569  0.014824271
     0.280952286  0.511408203  0.660457794
     0.166293507  0.330660476  0.316369255
     0.031270439  0.414936615  0.675467182
     0.982713583  0.553584808  0.325189235
     0.097216939  0.727802173  0.670004246
     0.026418540  0.827949810  0.308503709
     0.159185739  0.927691433  0.428989925
     0.781649814  0.572852593  0.312182554
     0.663015327  0.745347443  0.656306445
     0.528271446  0.675956780  0.297848356
     0.482645764  0.528726584  0.647191028
     0.595743197  0.353580243  0.302559666
     0.540918729  0.258033828  0.670090048
     0.654522197  0.145509359  0.524341061
     0.890846117  0.640056223  0.042292860
     0.601887702  0.795631697  0.030399685
     0.685887507  0.396454881  0.142240366
     0.541490069  0.390624224  0.972671872
     0.215849509  0.412097410  0.994383042
     0.119662741  0.695378588  0.964446464
     0.165829054  0.188874530  0.622742259
     0.863132765  0.294721099  0.525545468
     0.010016155  0.018719406  0.631480040
     0.797760178  0.896092758  0.501258510
     0.378428772  0.770230379  0.568507735
     0.390537775  0.185951114  0.453946240
     0.519313515  0.051356138  0.831688462
     0.956454604  0.727998048  0.047106652
     0.680828396  0.781023712  0.959051487
     0.614354412  0.128022613  0.064966624
     0.951445027  0.141033490  0.929967412
     0.702697411  0.444949114  0.034047644
     0.114354468  0.955934711  0.907091346
     0.456454679  0.356081997  0.924966162
     0.180828489  0.303056326  0.013021194
     0.451445005  0.943046559  0.041976911
     0.202697407  0.639008274  0.938010358
     0.208766778  0.207929388  0.514056285
     0.948651087  0.274947962  0.472003659
     0.876107689  0.627961390  0.548965050
     0.220616498  0.649073389  0.470951108
     0.973699272  0.956057544  0.527995042
     0.376107916  0.455996138  0.422964554
     0.708766797  0.876027905  0.458001784
     0.448651130  0.809009347  0.499925945
     0.720616469  0.435006584  0.500993175
     0.473699541  0.128022631  0.444077718

  ion indices of the primitive-cell ions
   primitive index   ion index
                 1           1
                 2           2
                 3           3
                 4           4
                 5           5
                 6           6
                 7           7
                 8           8
                 9           9
                10          10
                11          11
                12          12
                13          13
                14          14
                15          15
                16          16
                17          17
                18          18
                19          19
                20          20
                21          21
                22          22
                23          23
                24          24
                25          25
                26          26
                27          27
                28          28
                29          29
                30          30
                31          31
                32          32
                33          33
                34          34
                35          35
                36          36
                37          37
                38          38
                39          39
                40          40
                41          41
                42          42
                43          43
                44          44
                45          45
                46          46
                47          47
                48          48
                49          49
                50          50
                51          51
                52          52
                53          53
                54          54
                55          55
                56          56
                57          57
                58          58
                59          59
                60          60
                61          61
                62          62
                63          63
                64          64
                65          65
                66          66
                67          67
                68          68
                69          69
                70          70
                71          71
                72          72
                73          73
                74          74
                75          75
                76          76
                77          77
                78          78
                79          79
                80          80
                81          81
                82          82
                83          83
                84          84

----------------------------------------------------------------------------------------

 
 
 KPOINTS: Not only Gamma point                    

Automatic generation of k-mesh.
 Grid dimensions read from file:
 generate k-points for:    2    2    2

 Generating k-lattice:

  Cartesian coordinates                     Fractional coordinates (reciprocal lattice)
     0.048169563 -0.000000000  0.000000002     0.500000000 -0.000000000  0.000000000
    -0.000000000  0.060972053  0.006997525     0.000000000  0.500000000  0.000000000
     0.000000000  0.000000000  0.064655960     0.000000000  0.000000000  0.500000000

  Length of vectors
     0.048169563  0.061372279  0.064655960

  Shift w.r.t. Gamma in fractional coordinates (k-lattice)
     0.000000000  0.000000000  0.000000000

 
 Subroutine IBZKPT returns following result:
 ===========================================
 
 Found      8 irreducible k-points:
 
 Following reciprocal coordinates:
            Coordinates               Weight
  0.000000  0.000000  0.000000      1.000000
  0.500000  0.000000  0.000000      1.000000
  0.000000  0.500000  0.000000      1.000000
  0.500000  0.500000  0.000000      1.000000
  0.000000  0.000000  0.500000      1.000000
  0.500000  0.000000  0.500000      1.000000
  0.000000  0.500000  0.500000      1.000000
  0.500000  0.500000  0.500000      1.000000
 
 Following cartesian coordinates:
            Coordinates               Weight
  0.000000  0.000000  0.000000      1.000000
  0.048170 -0.000000  0.000000      1.000000
  0.000000  0.060972  0.006998      1.000000
  0.048170  0.060972  0.006998      1.000000
  0.000000  0.000000  0.064656      1.000000
  0.048170 -0.000000  0.064656      1.000000
  0.000000  0.060972  0.071653      1.000000
  0.048170  0.060972  0.071653      1.000000
 


--------------------------------------------------------------------------------------------------------




 Dimension of arrays:
   k-points           NKPTS =      8   k-points in BZ     NKDIM =      8   number of bands    NBANDS=    171
   number of dos      NEDOS =    301   number of ions     NIONS =     84
   non local maximal  LDIM  =      4   non local SUM 2l+1 LMDIM =      8
   total plane-waves  NPLWV = 103680
   max r-space proj   IRMAX =   1268   max aug-charges    IRDMAX=   2243
   dimension x,y,z NGX =    54 NGY =   48 NGZ =   40
   dimension x,y,z NGXF=   108 NGYF=   96 NGZF=   80
   support grid    NGXF=   108 NGYF=   96 NGZF=   80
   ions per type =              24  40  20
   NGX,Y,Z   is equivalent  to a cutoff of   8.65,  9.73,  8.54 a.u.
   NGXF,Y,Z  is equivalent  to a cutoff of  17.30, 19.46, 17.09 a.u.

 SYSTEM =  Iβ_cellulose                           
 POSCAR =  C  H  O                                 

 Startparameter for this run:
   NWRITE =      2    write-flag & timer
   PREC   = normal    normal or accurate (medium, high low for compatibility)
   ISTART =      0    job   : 0-new  1-cont  2-samecut
   ICHARG =      2    charge: 1-file 2-atom 10-const
   ISPIN  =      1    spin polarized calculation?
   LNONCOLLINEAR =      F non collinear calculations
   LSORBIT =      F    spin-orbit coupling
   INIWAV =      1    electr: 0-lowe 1-rand  2-diag
   LASPH  =      F    aspherical Exc in radial PAW
 Electronic Relaxation 1
   ENCUT  =  450.0 eV  33.07 Ry    5.75 a.u.  17.95 14.18 13.46*2*pi/ulx,y,z
   ENINI  =  450.0     initial cutoff
   ENAUG  =  644.9 eV  augmentation charge cutoff
   NELM   =     60;   NELMIN=  2; NELMDL= -5     # of ELM steps 
   EDIFF  = 0.1E-05   stopping-criterion for ELM
   LREAL  =      T    real-space projection
   NLSPLINE    = F    spline interpolate recip. space projectors
   LCOMPAT=      F    compatible to vasp.4.4
   GGA_COMPAT  = T    GGA compatible to vasp.4.4-vasp.4.6
   LMAXPAW     = -100 max onsite density
   LMAXMIX     =    2 max onsite mixed and CHGCAR
   VOSKOWN=      0    Vosko Wilk Nusair interpolation
   ROPT   =   -0.00050  -0.00050  -0.00050
 Ionic relaxation
   EDIFFG = 0.1E-04   stopping-criterion for IOM
   NSW    =  10000    number of steps for IOM
   NBLOCK =      1;   KBLOCK =  10000    inner block; outer block 
   IBRION =      0    ionic relax: 0-MD 1-quasi-New 2-CG
   NFREE  =      0    steps in history (QN), initial steepest desc. (CG)
   ISIF   =      2    stress and relaxation
   IWAVPR =     12    prediction:  0-non 1-charg 2-wave 3-comb
   ISYM   =      0    0-nonsym 1-usesym 2-fastsym
   LCORR  =      T    Harris-Foulkes like correction to forces

   POTIM  = 0.5000    time-step for ionic-motion
   TEIN   =    0.0    initial temperature
   TEBEG  =    0.0;   TEEND  =   0.0 temperature during run
   SMASS  =  -3.00    Nose mass-parameter (am)
   estimated Nose-frequenzy (Omega)   =  0.10E-29 period in steps = 0.13E+47 mass=  -0.246E-26a.u.
   SCALEE = 1.0000    scale energy and forces
   NPACO  =    256;   APACO  = 10.0  distance and # of slots for P.C.
   PSTRESS=    0.0 pullay stress

  Mass of Ions in am
   POMASS =  12.01  1.00 16.00
  Ionic Valenz
   ZVAL   =   4.00  1.00  6.00
  Atomic Wigner-Seitz radii
   RWIGS  =  -1.00 -1.00 -1.00
  virtual crystal weights 
   VCA    =   1.00  1.00  1.00
   NELECT =     256.0000    total number of electrons
   NUPDOWN=      -1.0000    fix difference up-down

 DOS related values:
   EMIN   =  10.00;   EMAX   =-10.00  energy-range for DOS
   EFERMI =   0.00;   METHOD = LEGACY      
   ISMEAR =     0;   SIGMA  =   0.05  broadening in eV -4-tet -1-fermi 0-gaus
   EFERMI_NEDOS =   21; number of points for ismear=-14 and -15

 Electronic relaxation 2 (details)
   IALGO  =     68    algorithm
   LDIAG  =      T    sub-space diagonalisation (order eigenvalues)
   LSUBROT=      F    optimize rotation matrix (better conditioning)
   LROBUST=      F    robust break criterion during scf (extrapolated energy error)
   ISEARCH=      0    line search for conjugate gradient (0, 1=use gradient)
   TURBO    =      0    0=normal 1=particle mesh
   IRESTART =      0    0=no restart 2=restart with 2 vectors
   NREBOOT  =      0    no. of reboots
   NMIN     =      0    reboot dimension
   EREF     =   0.00    reference energy to select bands
   IMIX   =      4    mixing-type and parameters
     AMIX     =   0.40;   BMIX     =  1.00
     AMIX_MAG =   1.60;   BMIX_MAG =  1.00
     AMIN     =   0.10
     WC   =   100.;   INIMIX=   1;  MIXPRE=   1;  MAXMIX= -45

 Intra band minimization:
   WEIMIN = 0.0010     energy-eigenvalue tresh-hold
   EBREAK =  0.15E-08  absolut break condition
   DEPER  =   0.30     relativ break condition  

   TIME   =   0.40     timestep for ELM

  volume/ion in A,a.u.               =       7.84        52.88
  Fermi-wavevector in a.u.,A,eV,Ry     =   1.194966  2.258158 19.428351  1.427943
  Thomas-Fermi vector in A             =   2.330943
 
 Write flags
   LWAVE        =      F    write WAVECAR
   LDOWNSAMPLE  =      F    k-point downsampling of WAVECAR
   LCHARG       =      F    write CHGCAR
   LVTOT        =      F    write LOCPOT, total local potential
   LVHAR        =      F    write LOCPOT, Hartree potential only
   WRT_POTENTIAL= false  ! write potential to hdf5 file
   LELF         =      F    write electronic localiz. function (ELF)
   LORBIT       =      0    0 simple, 1 ext, 2 COOP (PROOUT), +10 PAW based schemes


 Python interface
   PLUGINS active      =      F    recompile with -DPLUGINS to activate
 
 Dipole corrections
   LMONO      =      F    monopole corrections only (constant potential shift)
   LDIPOL     =      F    correct potential (dipole corrections)
   IDIPOL     =      0    1-x, 2-y, 3-z, 4-all directions 
   EPSILON    =  1.0000000 bulk dielectric constant
   LVACPOTAV  =      F  vacuum potentials using an averaging scheme for the charge density
   VACPOTFLAT =  0.1000000 required flatness to determine vacuum potential
 
Coulomb truncation method
  LTRUNCATE          =      F  Coulomb kernel truncation to be used

 
 Exchange correlation treatment:
   GGA     = PE    functional components
   XC_C    = 1    coefficients multiplying the functional components
   LIBXC   =     F    Libxc                    
   VOSKOWN =     0    Vosko Wilk Nusair interpolation
   LHFCALC =     F    Hartree Fock is set to
   LHFONE  =     F    Hartree Fock one center treatment
   AEXX    =    0.0000 exact exchange contribution

 Parameters of functionals:
   PE:
     No parameter
 
 Van der Waals corrections
   IVDW    =    12    specifies the selected vdW correction

 Linear response parameters
   LEPSILON=     F    determine dielectric tensor
   LRPA    =     F    only Hartree local field effects (RPA)
   LNABLA  =     F    use nabla operator in PAW spheres
   LVEL    =     F    velocity operator in full k-point grid
   CSHIFT  =0.1000    complex shift for real part using Kramers Kronig
   OMEGAMAX=  -1.0    maximum frequency
   DEG_THRESHOLD= 0.2000000E-02 threshold for treating states as degnerate
   RTIME   =   -0.100 relaxation time in fs
  (WPLASMAI=    0.000 imaginary part of plasma frequency in eV, 0.658/RTIME)
   DFIELD  = 0.0000000 0.0000000 0.0000000 field for delta impulse in time
 
  Optional k-point grid parameters
   LKPOINTS_OPT  =     F    use optional k-point grid
   KPOINTS_OPT_MODE=     1    mode for optional k-point grid
 
 Orbital magnetization related:
   ORBITALMAG=     F  switch on orbital magnetization
   LCHIMAG   =     F  perturbation theory with respect to B field
   DQ        =  0.001000  dq finite difference perturbation B field
   LLRAUG    =     F  two centre corrections for induced B field
   LBONE     =     F  B-component reconstruction in AE one-centre
   LVGVCALC  =     T  calculate vGv susceptibility
   LVGVAPPL  =     F  apply vGv susceptibility instead of pGv for G=0

 Random number generation:
   RANDOM_GENERATOR = DEFAULT
   PCG_SEED         = not used


--------------------------------------------------------------------------------------------------------


 molecular dynamics for ions
   using a microcanonical ensemble
 charge density and potential will be updated during run
 non-spin polarized calculation
 RMM-DIIS sequential band-by-band and
  variant of blocked Davidson during initial phase
 perform sub-space diagonalisation
    before iterative eigenvector-optimisation
 modified Broyden-mixing scheme, WC =      100.0
 initial mixing is a Kerker type mixing with AMIX =  0.4000 and BMIX =      1.0000
 Hartree-type preconditioning will be used
 using additional bands            43
 real space projection scheme for non local part
 use partial core corrections
 calculate Harris-corrections to forces 
   (improved forces if not selfconsistent)
 use gradient corrections 
 use of overlap-Matrix (Vanderbilt PP)
 Gauss-broadening in eV      SIGMA  =   0.05


--------------------------------------------------------------------------------------------------------


  energy-cutoff  :      450.00
  volume of cell :      658.26
      direct lattice vectors                 reciprocal lattice vectors
    10.379998696  0.000000000  0.000000000     0.096339126 -0.000000001  0.000000004
     0.000000066  8.200478354  0.000000000    -0.000000000  0.121944106  0.013995051
    -0.000000294 -0.887513773  7.733239105     0.000000000  0.000000000  0.129311920

  length of vectors
    10.379998696  8.200478354  7.784000755     0.096339126  0.122744557  0.129311920


 
 k-points in units of 2pi/SCALE and weight: Not only Gamma point                    
   0.00000000  0.00000000  0.00000000       0.125
   0.04816956 -0.00000000  0.00000000       0.125
   0.00000000  0.06097205  0.00699753       0.125
   0.04816956  0.06097205  0.00699753       0.125
   0.00000000  0.00000000  0.06465596       0.125
   0.04816956 -0.00000000  0.06465596       0.125
   0.00000000  0.06097205  0.07165349       0.125
   0.04816956  0.06097205  0.07165349       0.125
 
 k-points in reciprocal lattice and weights: Not only Gamma point                    
   0.00000000  0.00000000  0.00000000       0.125
   0.50000000  0.00000000  0.00000000       0.125
   0.00000000  0.50000000  0.00000000       0.125
   0.50000000  0.50000000  0.00000000       0.125
   0.00000000  0.00000000  0.50000000       0.125
   0.50000000  0.00000000  0.50000000       0.125
   0.00000000  0.50000000  0.50000000       0.125
   0.50000000  0.50000000  0.50000000       0.125
 
 position of ions in fractional coordinates (direct lattice) 
   0.00000000  0.00000000  0.00000000
   0.90510587  0.85798452  0.96007393
   0.77196520  0.90499569  0.02610104
   0.73179180  0.07192834  0.97896359
   0.83352593  0.20093291  0.01205955
   0.80375713  0.36099184  0.93904506
   0.49999983  0.08395731  0.97205796
   0.40510592  0.22609553  0.01199886
   0.27196528  0.17908434  0.94597164
   0.23179185  0.01202895  0.99296594
   0.33352595  0.88302449  0.95999843
   0.30375715  0.72296554  0.03301291
   0.26107894  0.49699284  0.51897332
   0.16618487  0.35976443  0.46099433
   0.03323685  0.40505717  0.53105454
   0.99421949  0.56806196  0.46802898
   0.09556824  0.69939863  0.52697036
   0.06926766  0.85700267  0.43798783
   0.76107880  0.58696469  0.45295633
   0.66618485  0.72419290  0.51093528
   0.53323690  0.67902287  0.44101831
   0.49421970  0.51601822  0.50404377
   0.59556848  0.38455878  0.44495922
   0.56926788  0.22695477  0.53407020
   0.01905757  0.03279229  0.14033657
   0.90430229  0.81192408  0.81910154
   0.76768442  0.90519296  0.17096855
   0.71027487  0.05549732  0.83546190
   0.85473091  0.22723789  0.15440045
   0.76939498  0.34634709  0.80381686
   0.88873133  0.44316068  0.94923219
   0.40247370  0.26960442  0.15353130
   0.26845382  0.18045831  0.80226734
   0.21050862  0.02803539  0.13663466
   0.35357573  0.85587422  0.81811483
   0.27863906  0.74033422  0.17212722
   0.38510895  0.63528157  0.01482427
   0.28095229  0.51140820  0.66045779
   0.16629351  0.33066048  0.31636926
   0.03127044  0.41493662  0.67546718
   0.98271358  0.55358481  0.32518923
   0.09721694  0.72780217  0.67000425
   0.02641854  0.82794981  0.30850371
   0.15918574  0.92769143  0.42898992
   0.78164981  0.57285259  0.31218255
   0.66301533  0.74534744  0.65630645
   0.52827145  0.67595678  0.29784836
   0.48264576  0.52872658  0.64719103
   0.59574320  0.35358024  0.30255967
   0.54091873  0.25803383  0.67009005
   0.65452220  0.14550936  0.52434106
   0.89084612  0.64005622  0.04229286
   0.60188770  0.79563170  0.03039968
   0.68588751  0.39645488  0.14224037
   0.54149007  0.39062422  0.97267187
   0.21584951  0.41209741  0.99438304
   0.11966274  0.69537859  0.96444646
   0.16582905  0.18887453  0.62274226
   0.86313277  0.29472110  0.52554547
   0.01001616  0.01871941  0.63148004
   0.79776018  0.89609276  0.50125851
   0.37842877  0.77023038  0.56850773
   0.39053777  0.18595111  0.45394624
   0.51931352  0.05135614  0.83168846
   0.95645460  0.72799805  0.04710665
   0.68082840  0.78102371  0.95905149
   0.61435441  0.12802261  0.06496662
   0.95144503  0.14103349  0.92996741
   0.70269741  0.44494911  0.03404764
   0.11435447  0.95593471  0.90709135
   0.45645468  0.35608200  0.92496616
   0.18082849  0.30305633  0.01302119
   0.45144500  0.94304656  0.04197691
   0.20269741  0.63900827  0.93801036
   0.20876678  0.20792939  0.51405629
   0.94865109  0.27494796  0.47200366
   0.87610769  0.62796139  0.54896505
   0.22061650  0.64907339  0.47095111
   0.97369927  0.95605754  0.52799504
   0.37610792  0.45599614  0.42296455
   0.70876680  0.87602790  0.45800178
   0.44865113  0.80900935  0.49992595
   0.72061647  0.43500658  0.50099317
   0.47369954  0.12802263  0.44407772
 
 position of ions in cartesian coordinates  (Angst):
   0.00000000  0.00000000  0.00000000
   9.39499755  6.18380466  7.42448125
   8.01299787  7.39823252  0.20184556
   7.59599763 -0.27899684  7.57055950
   8.65199803  1.63704292  0.09325941
   8.34299771  2.12689033  7.26185994
   5.18999733 -0.17422468  7.51715660
   4.20499896  1.84344233  0.09279007
   2.82299903  0.62901438  7.31542491
   2.40599884 -0.78262779  7.67884305
   3.46199868  6.38921135  7.42389743
   3.15299889  5.89936388  0.25529670
   2.70999893  3.61498304  4.01334475
   1.72499865  2.54110165  3.56497936
   0.34499835  2.85034437  4.10677177
  10.31999686  4.24299768  3.61938000
   0.99199812  5.26770989  4.07518779
   0.71899819  6.63911161  3.38706464
   7.89999689  4.41138624  3.50281961
   6.91499778  5.48526607  3.95118470
   5.53499828  5.17690256  3.41050003
   5.12999976  3.78425047  3.89789100
   6.18199996  2.75865851  3.44097601
   5.90899973  1.38714303  4.13009252
   0.19781755  0.14436184  1.08525625
   9.38665646  5.93120193  6.33430804
   7.96856332  7.27127835  1.32214068
   7.37265197 -0.28637934  6.46082661
   8.87210569  1.72642684  1.19401559
   7.98631865  2.12681329  6.21610801
   9.22502983  2.79167290  7.34063953
   4.17767648  2.07462409  1.18729429
   2.78655008  0.76782112  6.20412516
   2.18507912  0.10863846  1.05662849
   3.67011545  6.29248980  6.32667757
   2.89227307  5.91832948  1.33110095
   3.99743047  5.19645601  0.11463963
   2.91628420  3.60762651  5.10747804
   1.72612632  2.43079201  2.44655910
   0.32458694  2.80319230  5.22354923
  10.20056565  4.25105031  2.51476611
   1.00911155  5.37368797  5.18130304
   0.27422437  6.51578320  2.38573295
   1.65234770  7.22677905  3.31748166
   8.11352400  4.42059897  2.41418234
   6.88209809  5.52972457  5.07537467
   5.48345688  5.27882443  2.30333255
   5.00986224  3.76141996  5.00488296
   6.18381354  2.63100126  2.33976624
   5.61473552  1.52128668  5.18196657
   6.79393941  0.72788643  4.05485479
   9.24698156  5.21123170  0.32706080
   6.24759361  6.49758037  0.23508803
   7.11951141  3.12487939  1.09997876
   5.62066595  2.34004581  7.52190416
   2.24051735  2.49686725  7.68980183
   1.24209886  4.84647754  7.45829511
   1.72130519  0.99616917  4.81581479
   8.95931684  1.95042515  4.06416877
   0.10396750 -0.40693915  4.88338614
   8.28074952  6.90351543  3.87635191
   3.92809005  5.81169910  4.39640625
   4.05378147  1.12200454  3.51047482
   5.39047337 -0.31699007  6.43164574
   9.92799758  5.92812443  0.36428700
   7.06699763  5.55359664  7.41657446
   6.37699799  0.99218790  0.50240244
   9.87599788  0.33118319  7.19166036
   7.29399823  3.61857782  0.26329857
   1.18699903  7.03406584  7.01475427
   4.73799873  2.09912250  7.15298450
   1.87699949  2.47365035  0.10069601
   4.68599861  7.69617781  0.32461749
   2.10399859  4.40767641  7.25385838
   2.16699875  1.24888841  3.97532017
   9.84699692  1.83579506  3.65011716
   9.09399655  4.66236974  4.24527799
   2.28999886  4.90473669  3.64197752
  10.10699708  7.37152633  4.08311190
   3.90399959  3.36399959  3.27088603
   7.35699836  6.77736498  3.54183731
   4.65699805  6.19057248  3.86604687
   7.47999789  3.12262373  3.87430001
   4.91700050  0.65572172  3.43415918
 


--------------------------------------------------------------------------------------------------------


 k-point     1 :   0.0000 0.0000 0.0000  plane waves:   14275
 k-point     2 :   0.5000 0.0000 0.0000  plane waves:   14276
 k-point     3 :   0.0000 0.5000 0.0000  plane waves:   14262
 k-point     4 :   0.5000 0.5000 0.0000  plane waves:   14268
 k-point     5 :   0.0000 0.0000 0.5000  plane waves:   14216
 k-point     6 :   0.5000 0.0000 0.5000  plane waves:   14264
 k-point     7 :   0.0000 0.5000 0.5000  plane waves:   14266
 k-point     8 :   0.5000 0.5000 0.5000  plane waves:   14272

 maximum and minimum number of plane-waves per node :     14276    14216

 maximum number of plane-waves:     14276
 maximum index in each direction: 
   IXMAX=   17   IYMAX=   14   IZMAX=   13
   IXMIN=  -18   IYMIN=  -14   IZMIN=  -13


 serial   3D FFT for wavefunctions
 parallel 3D FFT for charge:
    minimum data exchange during FFTs selected (reduces bandwidth)


 total amount of memory used by VASP MPI-rank0   449532. kBytes
=======================================================================

   base                                    :      30000. kBytes
   nonlr-proj                              :       7511. kBytes
   fftplans                                :      28940. kBytes
   grid                                    :      58268. kBytes
   one-center                              :        258. kBytes
   wavefun                                 :     324555. kBytes
 
     INWAV:  cpu time      0.0000: real time      0.0000
 Broyden mixing: mesh for mixing (old mesh)
   NGX = 35   NGY = 29   NGZ = 27
  (NGX  =108   NGY  = 96   NGZ  = 80)
  gives a total of  27405 points

 initial charge density was supplied:
 charge density of overlapping atoms calculated
 number of electron     256.0000000 magnetization 
 keeping initial charge density in first step


--------------------------------------------------------------------------------------------------------


 Maximum index for non-local projection operator          1198
 Maximum index for augmentation-charges          1994 (set IRDMAX)


--------------------------------------------------------------------------------------------------------


 First call to EWALD:  gamma=   0.204
 Maximum number of real-space cells   2x   3x   3
 Maximum number of reciprocal cells   3x   3x   3

    FEWALD:  cpu time      0.1461: real time      0.1461


--------------------------------------- Ionic step        1  -------------------------------------------




--------------------------------------- Iteration      1(   1)  ---------------------------------------


    POTLOK:  cpu time      0.0278: real time      0.0276
    SETDIJ:  cpu time      0.0523: real time      0.0262
     EDDAV:  cpu time      4.0693: real time      4.0960
       DOS:  cpu time      0.0005: real time      0.0005
    --------------------------------------------
      LOOP:  cpu time      4.1501: real time      4.1503

 eigenvalue-minimisations  :  2736
 total energy-change (2. order) : 0.1332897E+04  (-0.1206691E+05)
 number of electron     256.0000000 magnetization 
 augmentation part      256.0000000 magnetization 

 Free energy of the ion-electron system (eV)
  ---------------------------------------------------
  alpha Z        PSCENC =       409.71332809
  Ewald energy   TEWEN  =     -6408.38557236
  -Hartree energ DENC   =     -5543.45341353
  -exchange      EXHF   =         0.00000000
  -V(xc)+E(xc)   XCENC  =       979.11282589
  PAW double counting   =      9620.87974837    -9670.87401246
  entropy T*S    EENTRO =        -0.00685087
  eigenvalues    EBANDS =      -731.70730316
  atomic energy  EATOM  =     12677.61814180
  Solvation  Ediel_sol  =         0.00000000
  ---------------------------------------------------
  free energy    TOTEN  =      1332.89689177 eV

  energy without entropy =     1332.90374264  energy(sigma->0) =     1332.90031720


--------------------------------------------------------------------------------------------------------




--------------------------------------- Iteration      1(   2)  ---------------------------------------


     EDDAV:  cpu time      4.7790: real time      4.7733
       DOS:  cpu time      0.0004: real time      0.0004
    --------------------------------------------
      LOOP:  cpu time      4.7794: real time      4.7737

 eigenvalue-minimisations  :  3390
 total energy-change (2. order) :-0.1725594E+04  (-0.1659093E+04)
 number of electron     256.0000000 magnetization 
 augmentation part      256.0000000 magnetization 

 Free energy of the ion-electron system (eV)
  ---------------------------------------------------
  alpha Z        PSCENC =       409.71332809
  Ewald energy   TEWEN  =     -6408.38557236
  -Hartree energ DENC   =     -5543.45341353
  -exchange      EXHF   =         0.00000000
  -V(xc)+E(xc)   XCENC  =       979.11282589
  PAW double counting   =      9620.87974837    -9670.87401246
  entropy T*S    EENTRO =        -0.00000000
  eigenvalues    EBANDS =     -2457.30768371
  atomic energy  EATOM  =     12677.61814180
  Solvation  Ediel_sol  =         0.00000000
  ---------------------------------------------------
  free energy    TOTEN  =      -392.69663791 eV

  energy without entropy =     -392.69663791  energy(sigma->0) =     -392.69663791


--------------------------------------------------------------------------------------------------------




--------------------------------------- Iteration      1(   3)  ---------------------------------------


     EDDAV:  cpu time      4.7605: real time      4.7554
       DOS:  cpu time      0.0004: real time      0.0004
    --------------------------------------------
      LOOP:  cpu time      4.7608: real time      4.7558

 eigenvalue-minimisations  :  3344
 total energy-change (2. order) :-0.1290158E+03  (-0.1279681E+03)
 number of electron     256.0000000 magnetization 
 augmentation part      256.0000000 magnetization 

 Free energy of the ion-electron system (eV)
  ---------------------------------------------------
  alpha Z        PSCENC =       409.71332809
  Ewald energy   TEWEN  =     -6408.38557236
  -Hartree energ DENC   =     -5543.45341353
  -exchange      EXHF   =         0.00000000
  -V(xc)+E(xc)   XCENC  =       979.11282589
  PAW double counting   =      9620.87974837    -9670.87401246
  entropy T*S    EENTRO =        -0.00000000
  eigenvalues    EBANDS =     -2586.32346230
  atomic energy  EATOM  =     12677.61814180
  Solvation  Ediel_sol  =         0.00000000
  ---------------------------------------------------
  free energy    TOTEN  =      -521.71241650 eV

  energy without entropy =     -521.71241650  energy(sigma->0) =     -521.71241650


--------------------------------------------------------------------------------------------------------




--------------------------------------- Iteration      1(   4)  ---------------------------------------


     EDDAV:  cpu time      4.8438: real time      4.8391
       DOS:  cpu time      0.0004: real time      0.0004
    --------------------------------------------
      LOOP:  cpu time      4.8442: real time      4.8395

 eigenvalue-minimisations  :  3456
 total energy-change (2. order) :-0.2604709E+01  (-0.2596418E+01)
 number of electron     256.0000000 magnetization 
 augmentation part      256.0000000 magnetization 

 Free energy of the ion-electron system (eV)
  ---------------------------------------------------
  alpha Z        PSCENC =       409.71332809
  Ewald energy   TEWEN  =     -6408.38557236
  -Hartree energ DENC   =     -5543.45341353
  -exchange      EXHF   =         0.00000000
  -V(xc)+E(xc)   XCENC  =       979.11282589
  PAW double counting   =      9620.87974837    -9670.87401246
  entropy T*S    EENTRO =        -0.00000000
  eigenvalues    EBANDS =     -2588.92817082
  atomic energy  EATOM  =     12677.61814180
  Solvation  Ediel_sol  =         0.00000000
  ---------------------------------------------------
  free energy    TOTEN  =      -524.31712502 eV

  energy without entropy =     -524.31712502  energy(sigma->0) =     -524.31712502


--------------------------------------------------------------------------------------------------------




--------------------------------------- Iteration      1(   5)  ---------------------------------------


     EDDAV:  cpu time      4.7054: real time      4.7010
       DOS:  cpu time      0.0004: real time      0.0004
    CHARGE:  cpu time      0.1707: real time      0.1686
    MIXING:  cpu time      0.0140: real time      0.0083
    --------------------------------------------
      LOOP:  cpu time      4.8903: real time      4.8781

 eigenvalue-minimisations  :  3328
 total energy-change (2. order) :-0.6465869E-01  (-0.6458711E-01)
 number of electron     256.0000056 magnetization 
 augmentation part       17.6772663 magnetization 

 Broyden mixing:
  rms(total) = 0.36888E+01    rms(broyden)= 0.36835E+01
  rms(prec ) = 0.45434E+01
  weight for this iteration     100.00

 Free energy of the ion-electron system (eV)
  ---------------------------------------------------
  alpha Z        PSCENC =       409.71332809
  Ewald energy   TEWEN  =     -6408.38557236
  -Hartree energ DENC   =     -5543.45341353
  -exchange      EXHF   =         0.00000000
  -V(xc)+E(xc)   XCENC  =       979.11282589
  PAW double counting   =      9620.87974837    -9670.87401246
  entropy T*S    EENTRO =        -0.00000000
  eigenvalues    EBANDS =     -2588.99282950
  atomic energy  EATOM  =     12677.61814180
  Solvation  Ediel_sol  =         0.00000000
  ---------------------------------------------------
  free energy    TOTEN  =      -524.38178370 eV

  energy without entropy =     -524.38178370  energy(sigma->0) =     -524.38178370


--------------------------------------------------------------------------------------------------------




--------------------------------------- Iteration      1(   6)  ---------------------------------------


    POTLOK:  cpu time      0.0195: real time      0.0186
    SETDIJ:  cpu time      0.0537: real time      0.0269
    EDDIAG:  cpu time      0.5501: real time      0.5495
  RMM-DIIS:  cpu time      1.6523: real time      1.6559
    ORTHCH:  cpu time      0.1742: real time      0.1742
       DOS:  cpu time      0.0004: real time      0.0004
    CHARGE:  cpu time      0.1659: real time      0.1637
    MIXING:  cpu time      0.0156: real time      0.0097
    --------------------------------------------
      LOOP:  cpu time      2.6315: real time      2.5989

 eigenvalue-minimisations  :  2736
 total energy-change (2. order) : 0.2731929E+02  (-0.5433307E+01)
 number of electron     256.0000055 magnetization 
 augmentation part       16.3738802 magnetization 

 Broyden mixing:
  rms(total) = 0.18299E+01    rms(broyden)= 0.18296E+01
  rms(prec ) = 0.21671E+01
  weight for this iteration     100.00

 eigenvalues of (default mixing * dielectric matrix)
  average eigenvalue GAMMA=   1.4699
  1.4699

 Free energy of the ion-electron system (eV)
  ---------------------------------------------------
  alpha Z        PSCENC =       409.71332809
  Ewald energy   TEWEN  =     -6408.38557236
  -Hartree energ DENC   =     -5902.04611054
  -exchange      EXHF   =         0.00000000
  -V(xc)+E(xc)   XCENC  =      1002.03737502
  PAW double counting   =     13155.42994848   -13211.76700822
  entropy T*S    EENTRO =        -0.00000000
  eigenvalues    EBANDS =     -2219.66259252
  atomic energy  EATOM  =     12677.61814180
  Solvation  Ediel_sol  =         0.00000000
  ---------------------------------------------------
  free energy    TOTEN  =      -497.06249025 eV

  energy without entropy =     -497.06249025  energy(sigma->0) =     -497.06249025


--------------------------------------------------------------------------------------------------------




--------------------------------------- Iteration      1(   7)  ---------------------------------------


    POTLOK:  cpu time      0.0191: real time      0.0185
    SETDIJ:  cpu time      0.0550: real time      0.0275
    EDDIAG:  cpu time      0.5507: real time      0.5501
  RMM-DIIS:  cpu time      1.6462: real time      1.6406
    ORTHCH:  cpu time      0.1741: real time      0.1740
       DOS:  cpu time      0.0003: real time      0.0003
    CHARGE:  cpu time      0.1636: real time      0.1617
    MIXING:  cpu time      0.0139: real time      0.0082
    --------------------------------------------
      LOOP:  cpu time      2.6229: real time      2.5810

 eigenvalue-minimisations  :  2736
 total energy-change (2. order) : 0.3706927E+01  (-0.1979767E+01)
 number of electron     256.0000055 magnetization 
 augmentation part       15.8731918 magnetization 

 Broyden mixing:
  rms(total) = 0.85278E+00    rms(broyden)= 0.85246E+00
  rms(prec ) = 0.95366E+00
  weight for this iteration     100.00

 eigenvalues of (default mixing * dielectric matrix)
  average eigenvalue GAMMA=   1.7677
  1.3816  2.1538

 Free energy of the ion-electron system (eV)
  ---------------------------------------------------
  alpha Z        PSCENC =       409.71332809
  Ewald energy   TEWEN  =     -6408.38557236
  -Hartree energ DENC   =     -6082.92913327
  -exchange      EXHF   =         0.00000000
  -V(xc)+E(xc)   XCENC  =      1014.67925730
  PAW double counting   =     16812.10929888   -16870.47899693
  entropy T*S    EENTRO =        -0.00000000
  eigenvalues    EBANDS =     -2045.68188704
  atomic energy  EATOM  =     12677.61814180
  Solvation  Ediel_sol  =         0.00000000
  ---------------------------------------------------
  free energy    TOTEN  =      -493.35556353 eV

  energy without entropy =     -493.35556353  energy(sigma->0) =     -493.35556353


--------------------------------------------------------------------------------------------------------




--------------------------------------- Iteration      1(   8)  ---------------------------------------


    POTLOK:  cpu time      0.0192: real time      0.0184
    SETDIJ:  cpu time      0.0542: real time      0.0271
    EDDIAG:  cpu time      0.5521: real time      0.5515
  RMM-DIIS:  cpu time     