<?xml version="1.0" encoding="ISO-8859-1"?>
<modeling>
 <generator>
  <i name="program" type="string">vasp </i>
  <i name="version" type="string">6.5.1  </i>
  <i name="subversion" type="string">10Mar25 (build Nov 30 2025 20:38:51) complex                          parallel </i>
  <i name="platform" type="string">LinuxNV </i>
  <i name="date" type="string">2025 12 05 </i>
  <i name="time" type="string">11:00:02 </i>
 </generator>
 <incar>
  <i type="string" name="SYSTEM">Iβ_cellulose</i>
  <i type="int" name="ISTART">     0</i>
  <i type="string" name="PREC">Normal</i>
  <i type="string" name="ALGO">Fast</i>
  <i type="int" name="IBRION">     0</i>
  <i name="EDIFF">      0.00000100</i>
  <i type="int" name="NSW"> 10000</i>
  <i type="int" name="ISIF">     2</i>
  <i type="int" name="ISYM">     0</i>
  <i name="ENCUT">    450.00000000</i>
  <i name="POTIM">      0.50000000</i>
  <i type="string" name="LREAL">Auto</i>
  <i type="int" name="ISMEAR">     0</i>
  <i name="SIGMA">      0.05000000</i>
  <i type="logical" name="LWAVE"> F  </i>
  <i type="logical" name="LCHARG"> F  </i>
  <i type="string" name="GGA">PE</i>
  <i type="int" name="IVDW">    12</i>
  <i type="int" name="MDALGO">     4</i>
 </incar>
 <primitive_cell>
  <structure name="primitive_cell" >
   <crystal>
    <varray name="basis" >
     <v>      10.37999870       0.00000000       0.00000000 </v>
     <v>       0.00000007       8.20047835       0.00000000 </v>
     <v>      -0.00000029      -0.88751377       7.73323911 </v>
    </varray>
    <i name="volume">    658.26069499 </i>
    <varray name="rec_basis" >
     <v>       0.09633913      -0.00000000       0.00000000 </v>
     <v>      -0.00000000       0.12194411       0.01399505 </v>
     <v>       0.00000000       0.00000000       0.12931192 </v>
    </varray>
   </crystal>
   <varray name="positions" >
    <v>       0.00000000       0.00000000       0.00000000 </v>
    <v>       0.90510587       0.85798452       0.96007393 </v>
    <v>       0.77196520       0.90499569       0.02610104 </v>
    <v>       0.73179180       0.07192834       0.97896359 </v>
    <v>       0.83352593       0.20093291       0.01205955 </v>
    <v>       0.80375713       0.36099184       0.93904506 </v>
    <v>       0.49999983       0.08395731       0.97205796 </v>
    <v>       0.40510592       0.22609553       0.01199886 </v>
    <v>       0.27196528       0.17908434       0.94597164 </v>
    <v>       0.23179185       0.01202895       0.99296594 </v>
    <v>       0.33352595       0.88302449       0.95999843 </v>
    <v>       0.30375715       0.72296554       0.03301291 </v>
    <v>       0.26107894       0.49699284       0.51897332 </v>
    <v>       0.16618487       0.35976443       0.46099433 </v>
    <v>       0.03323685       0.40505717       0.53105454 </v>
    <v>       0.99421949       0.56806196       0.46802898 </v>
    <v>       0.09556824       0.69939863       0.52697036 </v>
    <v>       0.06926766       0.85700267       0.43798783 </v>
    <v>       0.76107880       0.58696469       0.45295633 </v>
    <v>       0.66618485       0.72419290       0.51093528 </v>
    <v>       0.53323690       0.67902287       0.44101831 </v>
    <v>       0.49421970       0.51601822       0.50404377 </v>
    <v>       0.59556848       0.38455878       0.44495922 </v>
    <v>       0.56926788       0.22695477       0.53407020 </v>
    <v>       0.01905757       0.03279229       0.14033657 </v>
    <v>       0.90430229       0.81192408       0.81910154 </v>
    <v>       0.76768442       0.90519296       0.17096855 </v>
    <v>       0.71027487       0.05549732       0.83546190 </v>
    <v>       0.85473091       0.22723789       0.15440045 </v>
    <v>       0.76939498       0.34634709       0.80381686 </v>
    <v>       0.88873133       0.44316068       0.94923219 </v>
    <v>       0.40247370       0.26960442       0.15353130 </v>
    <v>       0.26845382       0.18045831       0.80226734 </v>
    <v>       0.21050862       0.02803539       0.13663466 </v>
    <v>       0.35357573       0.85587422       0.81811483 </v>
    <v>       0.27863906       0.74033422       0.17212722 </v>
    <v>       0.38510895       0.63528157       0.01482427 </v>
    <v>       0.28095229       0.51140820       0.66045779 </v>
    <v>       0.16629351       0.33066048       0.31636926 </v>
    <v>       0.03127044       0.41493662       0.67546718 </v>
    <v>       0.98271358       0.55358481       0.32518923 </v>
    <v>       0.09721694       0.72780217       0.67000425 </v>
    <v>       0.02641854       0.82794981       0.30850371 </v>
    <v>       0.15918574       0.92769143       0.42898992 </v>
    <v>       0.78164981       0.57285259       0.31218255 </v>
    <v>       0.66301533       0.74534744       0.65630645 </v>
    <v>       0.52827145       0.67595678       0.29784836 </v>
    <v>       0.48264576       0.52872658       0.64719103 </v>
    <v>       0.59574320       0.35358024       0.30255967 </v>
    <v>       0.54091873       0.25803383       0.67009005 </v>
    <v>       0.65452220       0.14550936       0.52434106 </v>
    <v>       0.89084612       0.64005622       0.04229286 </v>
    <v>       0.60188770       0.79563170       0.03039968 </v>
    <v>       0.68588751       0.39645488       0.14224037 </v>
    <v>       0.54149007       0.39062422       0.97267187 </v>
    <v>       0.21584951       0.41209741       0.99438304 </v>
    <v>       0.11966274       0.69537859       0.96444646 </v>
    <v>       0.16582905       0.18887453       0.62274226 </v>
    <v>       0.86313277       0.29472110       0.52554547 </v>
    <v>       0.01001616       0.01871941       0.63148004 </v>
    <v>       0.79776018       0.89609276       0.50125851 </v>
    <v>       0.37842877       0.77023038       0.56850773 </v>
    <v>       0.39053777       0.18595111       0.45394624 </v>
    <v>       0.51931352       0.05135614       0.83168846 </v>
    <v>       0.95645460       0.72799805       0.04710665 </v>
    <v>       0.68082840       0.78102371       0.95905149 </v>
    <v>       0.61435441       0.12802261       0.06496662 </v>
    <v>       0.95144503       0.14103349       0.92996741 </v>
    <v>       0.70269741       0.44494911       0.03404764 </v>
    <v>       0.11435447       0.95593471       0.90709135 </v>
    <v>       0.45645468       0.35608200       0.92496616 </v>
    <v>       0.18082849       0.30305633       0.01302119 </v>
    <v>       0.45144500       0.94304656       0.04197691 </v>
    <v>       0.20269741       0.63900827       0.93801036 </v>
    <v>       0.20876678       0.20792939       0.51405629 </v>
    <v>       0.94865109       0.27494796       0.47200366 </v>
    <v>       0.87610769       0.62796139       0.54896505 </v>
    <v>       0.22061650       0.64907339       0.47095111 </v>
    <v>       0.97369927       0.95605754       0.52799504 </v>
    <v>       0.37610792       0.45599614       0.42296455 </v>
    <v>       0.70876680       0.87602790       0.45800178 </v>
    <v>       0.44865113       0.80900935       0.49992595 </v>
    <v>       0.72061647       0.43500658       0.50099317 </v>
    <v>       0.47369954       0.12802263       0.44407772 </v>
   </varray>
  </structure>
  <varray name="primitive_index" >
   <v type="int" >        1 </v>
   <v type="int" >        2 </v>
   <v type="int" >        3 </v>
   <v type="int" >        4 </v>
   <v type="int" >        5 </v>
   <v type="int" >        6 </v>
   <v type="int" >        7 </v>
   <v type="int" >        8 </v>
   <v type="int" >        9 </v>
   <v type="int" >       10 </v>
   <v type="int" >       11 </v>
   <v type="int" >       12 </v>
   <v type="int" >       13 </v>
   <v type="int" >       14 </v>
   <v type="int" >       15 </v>
   <v type="int" >       16 </v>
   <v type="int" >       17 </v>
   <v type="int" >       18 </v>
   <v type="int" >       19 </v>
   <v type="int" >       20 </v>
   <v type="int" >       21 </v>
   <v type="int" >       22 </v>
   <v type="int" >       23 </v>
   <v type="int" >       24 </v>
   <v type="int" >       25 </v>
   <v type="int" >       26 </v>
   <v type="int" >       27 </v>
   <v type="int" >       28 </v>
   <v type="int" >       29 </v>
   <v type="int" >       30 </v>
   <v type="int" >       31 </v>
   <v type="int" >       32 </v>
   <v type="int" >       33 </v>
   <v type="int" >       34 </v>
   <v type="int" >       35 </v>
   <v type="int" >       36 </v>
   <v type="int" >       37 </v>
   <v type="int" >       38 </v>
   <v type="int" >       39 </v>
   <v type="int" >       40 </v>
   <v type="int" >       41 </v>
   <v type="int" >       42 </v>
   <v type="int" >       43 </v>
   <v type="int" >       44 </v>
   <v type="int" >       45 </v>
   <v type="int" >       46 </v>
   <v type="int" >       47 </v>
   <v type="int" >       48 </v>
   <v type="int" >       49 </v>
   <v type="int" >       50 </v>
   <v type="int" >       51 </v>
   <v type="int" >       52 </v>
   <v type="int" >       53 </v>
   <v type="int" >       54 </v>
   <v type="int" >       55 </v>
   <v type="int" >       56 </v>
   <v type="int" >       57 </v>
   <v type="int" >       58 </v>
   <v type="int" >       59 </v>
   <v type="int" >       60 </v>
   <v type="int" >       61 </v>
   <v type="int" >       62 </v>
   <v type="int" >       63 </v>
   <v type="int" >       64 </v>
   <v type="int" >       65 </v>
   <v type="int" >       66 </v>
   <v type="int" >       67 </v>
   <v type="int" >       68 </v>
   <v type="int" >       69 </v>
   <v type="int" >       70 </v>
   <v type="int" >       71 </v>
   <v type="int" >       72 </v>
   <v type="int" >       73 </v>
   <v type="int" >       74 </v>
   <v type="int" >       75 </v>
   <v type="int" >       76 </v>
   <v type="int" >       77 </v>
   <v type="int" >       78 </v>
   <v type="int" >       79 </v>
   <v type="int" >       80 </v>
   <v type="int" >       81 </v>
   <v type="int" >       82 </v>
   <v type="int" >       83 </v>
   <v type="int" >       84 </v>
  </varray>
 </primitive_cell>
 <kpoints>
  <generation param="Gamma">
   <v type="int" name="divisions">       2        2        2 </v>
   <v name="usershift">      0.00000000       0.00000000       0.00000000 </v>
   <v name="genvec1">      0.50000000      -0.00000000       0.00000000 </v>
   <v name="genvec2">      0.00000000       0.50000000       0.00000000 </v>
   <v name="genvec3">      0.00000000       0.00000000       0.50000000 </v>
   <v name="shift">      0.00000000       0.00000000       0.00000000 </v>
  </generation>
  <varray name="kpointlist" >
   <v>       0.00000000       0.00000000       0.00000000 </v>
   <v>       0.50000000       0.00000000       0.00000000 </v>
   <v>       0.00000000       0.50000000       0.00000000 </v>
   <v>       0.50000000       0.50000000       0.00000000 </v>
   <v>       0.00000000       0.00000000       0.50000000 </v>
   <v>       0.50000000       0.00000000       0.50000000 </v>
   <v>       0.00000000       0.50000000       0.50000000 </v>
   <v>       0.50000000       0.50000000       0.50000000 </v>
  </varray>
  <varray name="weights" >
   <v>       0.12500000 </v>
   <v>       0.12500000 </v>
   <v>       0.12500000 </v>
   <v>       0.12500000 </v>
   <v>       0.12500000 </v>
   <v>       0.12500000 </v>
   <v>       0.12500000 </v>
   <v>       0.12500000 </v>
  </varray>
 </kpoints>
 <parameters>
  <separator name="general" >
   <i type="string" name="SYSTEM">Iβ_cellulose</i>
   <i type="logical" name="LCOMPAT"> F  </i>
  </separator>
  <separator name="electronic" >
   <i type="string" name="PREC">normal</i>
   <i name="ENMAX">    450.00000000</i>
   <i name="ENAUG">    644.87300000</i>
   <i name="EDIFF">      0.00000100</i>
   <i type="int" name="IALGO">    68</i>
   <i type="int" name="IWAVPR">    12</i>
   <i type="int" name="NBANDS">   171</i>
   <i type="int" name="NBANDSLOW">    -1</i>
   <i type="int" name="NBANDSHIGH">    -1</i>
   <i name="NELECT">    256.00000000</i>
   <i type="int" name="TURBO">     0</i>
   <i type="int" name="IRESTART">     0</i>
   <i type="int" name="NREBOOT">     0</i>
   <i type="int" name="NMIN">     0</i>
   <i name="EREF">      0.00000000</i>
   <separator name="electronic smearing" >
    <i type="int" name="ISMEAR">     0</i>
    <i name="SIGMA">      0.05000000</i>
    <i name="KSPACING">      0.50000000</i>
    <i type="logical" name="KGAMMA"> T  </i>
    <i type="logical" name="KBLOWUP"> T  </i>
   </separator>
   <separator name="electronic projectors" >
    <i type="logical" name="LREAL"> T  </i>
    <v name="ROPT">     -0.00050000     -0.00050000     -0.00050000</v>
    <i type="int" name="LMAXPAW">  -100</i>
    <i type="int" name="LMAXMIX">     2</i>
    <i type="logical" name="NLSPLINE"> F  </i>
   </separator>
   <separator name="electronic startup" >
    <i type="int" name="ISTART">     0</i>
    <i type="int" name="ICHARG">     2</i>
    <i type="int" name="INIWAV">     1</i>
   </separator>
   <separator name="electronic spin" >
    <i type="int" name="ISPIN">     1</i>
    <i type="logical" name="LNONCOLLINEAR"> F  </i>
    <v name="MAGMOM">      1.00000000      1.00000000      1.00000000      1.00000000      1.00000000      1.00000000      1.00000000      1.00000000      1.00000000      1.00000000      1.00000000      1.00000000      1.00000000      1.00000000      1.00000000      1.00000000      1.00000000      1.00000000      1.00000000      1.00000000
      1.00000000      1.00000000      1.00000000      1.00000000      1.00000000      1.00000000      1.00000000      1.00000000      1.00000000      1.00000000      1.00000000      1.00000000      1.00000000      1.00000000      1.00000000      1.00000000      1.00000000      1.00000000      1.00000000      1.00000000
      1.00000000      1.00000000      1.00000000      1.00000000      1.00000000      1.00000000      1.00000000      1.00000000      1.00000000      1.00000000      1.00000000      1.00000000      1.00000000      1.00000000      1.00000000      1.00000000      1.00000000      1.00000000      1.00000000      1.00000000
      1.00000000      1.00000000      1.00000000      1.00000000      1.00000000      1.00000000      1.00000000      1.00000000      1.00000000      1.00000000      1.00000000      1.00000000      1.00000000      1.00000000      1.00000000      1.00000000      1.00000000      1.00000000      1.00000000      1.00000000
      1.00000000      1.00000000      1.00000000      1.00000000</v>
    <i name="NUPDOWN">     -1.00000000</i>
    <i type="logical" name="LSORBIT"> F  </i>
    <v name="SAXIS">      0.00000000      0.00000000      1.00000000</v>
    <i type="logical" name="LSPIRAL"> F  </i>
    <v name="QSPIRAL">      0.00000000      0.00000000      0.00000000</v>
    <i type="logical" name="LZEROZ"> F  </i>
   </separator>
   <separator name="electronic exchange-correlation" >
    <i type="logical" name="LASPH"> F  </i>
   </separator>
   <separator name="electronic convergence" >
    <i type="int" name="NELM">    60</i>
    <i type="int" name="NELMDL">    -5</i>
    <i type="int" name="NELMIN">     2</i>
    <i name="ENINI">    450.00000000</i>
    <separator name="electronic convergence detail" >
     <i type="logical" name="LDIAG"> T  </i>
     <i type="logical" name="LSUBROT"> F  </i>
     <i type="logical" name="LROBUST"> F  </i>
     <i type="int" name="ISEARCH">     0</i>
     <i name="WEIMIN">      0.00100000</i>
     <i name="EBREAK">      0.00000000</i>
     <i name="DEPER">      0.30000000</i>
     <i type="int" name="NRMM">     4</i>
     <i name="TIME">      0.40000000</i>
    </separator>
   </separator>
   <separator name="electronic mixer" >
    <i name="AMIX">      0.40000000</i>
    <i name="BMIX">      1.00000000</i>
    <i name="AMIN">      0.10000000</i>
    <i name="AMIX_MAG">      1.60000000</i>
    <i name="BMIX_MAG">      1.00000000</i>
    <separator name="electronic mixer details" >
     <i type="int" name="IMIX">     4</i>
     <i type="logical" name="MIXFIRST"> F  </i>
     <i type="int" name="MAXMIX">   -45</i>
     <i name="WC">    100.00000000</i>
     <i type="int" name="INIMIX">     1</i>
     <i type="int" name="MIXPRE">     1</i>
     <i type="int" name="MREMOVE">     5</i>
    </separator>
   </separator>
   <separator name="electronic dipolcorrection" >
    <i type="logical" name="LDIPOL"> F  </i>
    <i type="logical" name="LMONO"> F  </i>
    <i type="int" name="IDIPOL">     0</i>
    <i name="EPSILON">      1.00000000</i>
    <v name="DIPOL">   -100.00000000   -100.00000000   -100.00000000</v>
    <i name="EFIELD">      0.00000000</i>
    <i type="logical" name="LVACPOTAV"> F  </i>
   </separator>
  </separator>
  <separator name="grids" >
   <i type="int" name="NGX">    54</i>
   <i type="int" name="NGY">    48</i>
   <i type="int" name="NGZ">    40</i>
   <i type="int" name="NGXF">   108</i>
   <i type="int" name="NGYF">    96</i>
   <i type="int" name="NGZF">    80</i>
   <i type="logical" name="ADDGRID"> F  </i>
  </separator>
  <separator name="ionic" >
   <i type="int" name="NSW"> 10000</i>
   <i type="int" name="IBRION">     0</i>
   <i type="int" name="MDALGO">     4</i>
   <i type="int" name="ISIF">     2</i>
   <i name="PSTRESS">      0.00000000</i>
   <i name="EDIFFG">      0.00001000</i>
   <i type="int" name="NFREE">     0</i>
   <i name="POTIM">      0.50000000</i>
   <i name="SMASS">     -3.00000000</i>
   <i name="SCALEE">      1.00000000</i>
  </separator>
  <separator name="ionic md" >
   <i name="TEBEG">      0.00010000</i>
   <i name="TEEND">      0.00010000</i>
   <i type="int" name="NBLOCK">     1</i>
   <i type="int" name="KBLOCK"> 10000</i>
   <i type="int" name="NPACO">   256</i>
   <i name="APACO">     10.00000000</i>
  </separator>
  <separator name="symmetry" >
   <i type="int" name="ISYM">     0</i>
   <i name="SYMPREC">      0.00001000</i>
  </separator>
  <separator name="dos" >
   <i type="int" name="LORBIT">     0</i>
   <v name="RWIGS">     -1.00000000     -1.00000000     -1.00000000</v>
   <i type="int" name="NEDOS">   301</i>
   <i name="EMIN">     10.00000000</i>
   <i name="EMAX">    -10.00000000</i>
   <i name="EFERMI">      0.00000000</i>
  </separator>
  <separator name="writing" >
   <i type="int" name="NWRITE">     2</i>
   <i type="logical" name="LWAVE"> F  </i>
   <i type="logical" name="LDOWNSAMPLE"> F  </i>
   <i type="logical" name="LCHARG"> F  </i>
   <i type="logical" name="LPARD"> F  </i>
   <i type="logical" name="LVTOT"> F  </i>
   <i type="logical" name="LVHAR"> F  </i>
   <i type="logical" name="LELF"> F  </i>
   <i type="logical" name="LOPTICS"> F  </i>
   <v name="STM">      0.00000000      0.00000000      0.00000000      0.00000000      0.00000000      0.00000000      0.00000000</v>
  </separator>
  <separator name="performance" >
   <i type="int" name="NPAR">     1</i>
   <i type="int" name="NSIM">     4</i>
   <i type="int" name="NBLK">    -1</i>
   <i type="logical" name="LPLANE"> T  </i>
   <i type="logical" name="LSCALAPACK"> T  </i>
   <i type="logical" name="LSCAAWARE"> F  </i>
   <i type="logical" name="LSCALU"> F  </i>
   <i type="logical" name="LASYNC"> F  </i>
   <i type="logical" name="LORBITALREAL"> F  </i>
  </separator>
  <separator name="miscellaneous" >
   <i type="int" name="IDIOT">     3</i>
   <i type="int" name="PHON_NSTRUCT">    -1</i>
   <i type="logical" name="LMUSIC"> F  </i>
   <v name="POMASS">     12.01100000      1.00000000     16.00000000</v>
   <v name="DARWINR">      0.00000000      0.00000000      0.00000000</v>
   <v name="DARWINV">      1.00000000      1.00000000      1.00000000</v>
   <i type="logical" name="LCORR"> T  </i>
  </separator>
  <i type="logical" name="GGA_COMPAT"> T  </i>
  <i type="logical" name="LBERRY"> F  </i>
  <i type="int" name="ICORELEVEL">     0</i>
  <i type="logical" name="LDAU"> F  </i>
  <i type="int" name="I_CONSTRAINED_M">     0</i>
  <separator name="electronic exchange-correlation" >
   <i type="string" name="GGA    ">PE</i>
   <i type="string" name="XC_C">1</i>
   <i type="int" name="VOSKOWN">     0</i>
   <i type="logical" name="LHFCALC"> F  </i>
   <i type="string" name="PRECFOCK"></i>
   <i type="logical" name="LSYMGRAD"> F  </i>
   <i type="logical" name="LHFONE"> F  </i>
   <i type="logical" name="LRHFCALC"> F  </i>
   <i type="logical" name="LTHOMAS"> F  </i>
   <i type="logical" name="LMODELHF"> F  </i>
   <i type="logical" name="LFOCKACE"> F  </i>
   <i name="ENCUT4O">     -1.00000000</i>
   <i type="int" name="EXXOEP">     0</i>
   <i type="int" name="FOURORBIT">     0</i>
   <i name="AEXX">      0.00000000</i>
   <i name="HFALPHA">      0.00000000</i>
   <i name="MCALPHA">      0.00000000</i>
   <i name="ALDAX">      1.00000000</i>
   <i name="AGGAX">      1.00000000</i>
   <i name="AMGGAX">      1.00000000</i>
   <i name="ALDAC">      1.00000000</i>
   <i name="AGGAC">      1.00000000</i>
   <i name="AMGGAC">      1.00000000</i>
   <i type="int" name="NKREDX">     1</i>
   <i type="int" name="NKREDY">     1</i>
   <i type="int" name="NKREDZ">     1</i>
   <i type="logical" name="SHIFTRED"> F  </i>
   <i type="logical" name="ODDONLY"> F  </i>
   <i type="logical" name="EVENONLY"> F  </i>
   <i type="int" name="LMAXFOCK">     0</i>
   <i type="int" name="NMAXFOCKAE">     0</i>
   <i type="logical" name="LFOCKAEDFT"> F  </i>
   <i name="HFSCREEN">      0.00000000</i>
   <i name="HFSCREENC">      0.00000000</i>
   <i type="int" name="NBANDSGWLOW">     0</i>
  </separator>
  <separator name="vdW DFT" >
   <i type="logical" name="LUSE_VDW"> F  </i>
   <i type="int" name="IVDW_NL">    -1</i>
   <i type="logical" name="LSPIN_VDW"> F  </i>
   <i name="ZAB_VDW">     -0.84910000</i>
   <i name="GAMMA_VDW">      1.39626340</i>
   <i name="ALPHA_VDW">      0.00000000</i>
   <i name="PARAM1">      0.12340000</i>
   <i name="PARAM2">      1.00000000</i>
   <i name="BPARAM">      6.30000000</i>
   <i name="CPARAM">      0.00930000</i>
  </separator>
  <separator name="model GW" >
   <i type="int" name="MODEL_GW">     0</i>
   <i name="MODEL_EPS0">      4.70186211</i>
   <i name="MODEL_ALPHA">      1.00000000</i>
  </separator>
  <separator name="linear response parameters" >
   <i type="logical" name="LEPSILON"> F  </i>
   <i type="logical" name="LRPA"> F  </i>
   <i type="logical" name="LNABLA"> F  </i>
   <i type="logical" name="LVEL"> F  </i>
   <i name="CSHIFT">      0.10000000</i>
   <i name="OMEGAMAX">     -1.00000000</i>
   <i name="DEG_THRESHOLD">      0.00200000</i>
   <i name="RTIME">     -0.10000000</i>
   <i name="WPLASMAI">      0.00000000</i>
   <v name="DFIELD">      0.00000000      0.00000000      0.00000000</v>
   <v name="WPLASMA">      0.00000000      0.00000000      0.00000000      0.00000000      0.00000000      0.00000000      0.00000000      0.00000000      0.00000000</v>
  </separator>
  <separator name="orbital magnetization" >
   <i type="logical" name="NUCIND"> F  </i>
   <v name="MAGPOS">      0.00000000      0.00000000      0.00000000</v>
   <i type="logical" name="LNICSALL"> T  </i>
   <i type="logical" name="ORBITALMAG"> F  </i>
   <i type="logical" name="LMAGBLOCH"> F  </i>
   <i type="logical" name="LCHIMAG"> F  </i>
   <i type="logical" name="LGAUGE"> T  </i>
   <i type="int" name="MAGATOM">     0</i>
   <v name="MAGDIPOL">      0.00000000      0.00000000      0.00000000</v>
   <v name="AVECCONST">      0.00000000      0.00000000      0.00000000</v>
  </separator>
  <separator name="response functions" >
   <i type="logical" name="LALL_IN_ONE"> F  </i>
   <i type="int" name="IALL_IN_ONE">    -1</i>
   <i type="int" name="NBANDS_WAVE">    -1</i>
   <i type="logical" name="LFINITE_TEMPERATURE"> F  </i>
   <i type="logical" name="LADDER"> F  </i>
   <i type="logical" name="LRPAFORCE"> F  </i>
   <i type="logical" name="LFXC"> F  </i>
   <i type="logical" name="LHARTREE"> T  </i>
   <i type="int" name="IBSE">     2</i>
   <v type="int" name="KPOINT">    -1     0     0     0</v>
   <i type="logical" name="LTCTC"> F  </i>
   <i type="logical" name="LTCTE"> F  </i>
   <i type="logical" name="LTETE"> F  </i>
   <i type="logical" name="LTRIPLET"> F  </i>
   <i type="logical" name="LFXCEPS"> F  </i>
   <i type="logical" name="LFXHEG"> F  </i>
   <i type="int" name="NATURALO">     2</i>
   <i type="logical" name="LHOLEGF"> F  </i>
   <i type="logical" name="L2ORDER"> F  </i>
   <i type="logical" name="LDMP1"> F  </i>
   <i type="logical" name="LMP2LT"> F  </i>
   <i type="logical" name="LSMP2LT"> F  </i>
   <i type="logical" name="LGWLF"> F  </i>
   <i name="ENCUTGW">     -1.60000002</i>
   <i name="ENCUTGWSOFT">     -1.60000002</i>
   <i name="ENCUTLF">     -1.00000000</i>
   <i type="logical" name="ESF_SPLINES"> F  </i>
   <i name="ESF_CONV">      0.01000000</i>
   <i type="int" name="ESF_NINTER">    15</i>
   <i type="int" name="LMAXMP2">    -1</i>
   <i name="SCISSOR">      0.00000000</i>
   <i type="int" name="NOMEGA">     0</i>
   <i type="int" name="NOMEGAR">     0</i>
   <i type="int" name="NBANDSGW">    -1</i>
   <i type="int" name="NBANDSO">    -1</i>
   <i type="int" name="NBANDSV">    -1</i>
   <i type="int" name="NELMGW">     1</i>
   <i type="int" name="NELMHF">     1</i>
   <i type="int" name="DIM">     3</i>
   <i type="int" name="IESPILON">     4</i>
   <i type="int" name="ANTIRES">     0</i>
   <i name="OMEGAMAX">    -30.00000000</i>
   <i name="OMEGAMIN">    -30.00000000</i>
   <i name="OMEGATL">   -200.00000000</i>
   <i type="int" name="OMEGAGRID">     0</i>
   <i name="CSHIFT">     -0.10000000</i>
   <i type="logical" name="LSELFENERGY"> F  </i>
   <i type="logical" name="LSPECTRAL"> F  </i>
   <i type="logical" name="LSPECTRALGW"> F  </i>
   <i type="logical" name="LSINGLES"> F  </i>
   <i type="logical" name="LFERMIGW"> F  </i>
   <i type="logical" name="ODDONLYGW"> F  </i>
   <i type="logical" name="EVENONLYGW"> F  </i>
   <i type="int" name="NKREDLFX">     1</i>
   <i type="int" name="NKREDLFY">     1</i>
   <i type="int" name="NKREDLFZ">     1</i>
   <i type="int" name="MAXMEM">  2800</i>
   <i type="int" name="TELESCOPE">     0</i>
   <i type="int" name="NTAUPAR">    -1</i>
   <i type="int" name="NOMEGAPAR">    -1</i>
   <i name="DAMP_NEWTON">      0.80000001</i>
   <i name="LAMBDA">      1.00000000</i>
  </separator>
  <separator name="External order field" >
   <i name="OFIELD_KAPPA">      0.00000000</i>
   <v name="OFIELD_K">      0.00000000      0.00000000      0.00000000</v>
   <i name="OFIELD_Q6_NEAR">      0.00000000</i>
   <i name="OFIELD_Q6_FAR">      0.00000000</i>
   <i name="OFIELD_A">      0.00000000</i>
  </separator>
  <separator name="optional k-points parameters" >
   <i type="int" name="KPOINTS_OPT_MODE">     1</i>
   <i type="logical" name="LKPOINTS_OPT"> F  </i>
  </separator>
 </parameters>
 <atominfo>
  <atoms>      84 </atoms>
  <types>       3 </types>
  <array name="atoms" >
   <dimension dim="1">ion</dimension>
   <field type="string">element</field>
   <field type="int">atomtype</field>
   <set>
    <rc><c>C </c><c>   1</c></rc>
    <rc><c>C </c><c>   1</c></rc>
    <rc><c>C </c><c>   1</c></rc>
    <rc><c>C </c><c>   1</c></rc>
    <rc><c>C </c><c>   1</c></rc>
    <rc><c>C </c><c>   1</c></rc>
    <rc><c>C </c><c>   1</c></rc>
    <rc><c>C </c><c>   1</c></rc>
    <rc><c>C </c><c>   1</c></rc>
    <rc><c>C </c><c>   1</c></rc>
    <rc><c>C </c><c>   1</c></rc>
    <rc><c>C </c><c>   1</c></rc>
    <rc><c>C </c><c>   1</c></rc>
    <rc><c>C </c><c>   1</c></rc>
    <rc><c>C </c><c>   1</c></rc>
    <rc><c>C </c><c>   1</c></rc>
    <rc><c>C </c><c>   1</c></rc>
    <rc><c>C </c><c>   1</c></rc>
    <rc><c>C </c><c>   1</c></rc>
    <rc><c>C </c><c>   1</c></rc>
    <rc><c>C </c><c>   1</c></rc>
    <rc><c>C </c><c>   1</c></rc>
    <rc><c>C </c><c>   1</c></rc>
    <rc><c>C </c><c>   1</c></rc>
    <rc><c>H </c><c>   2</c></rc>
    <rc><c>H </c><c>   2</c></rc>
    <rc><c>H </c><c>   2</c></rc>
    <rc><c>H </c><c>   2</c></rc>
    <rc><c>H </c><c>   2</c></rc>
    <rc><c>H </c><c>   2</c></rc>
    <rc><c>H </c><c>   2</c></rc>
    <rc><c>H </c><c>   2</c></rc>
    <rc><c>H </c><c>   2</c></rc>
    <rc><c>H </c><c>   2</c></rc>
    <rc><c>H </c><c>   2</c></rc>
    <rc><c>H </c><c>   2</c></rc>
    <rc><c>H </c><c>   2</c></rc>
    <rc><c>H </c><c>   2</c></rc>
    <rc><c>H </c><c>   2</c></rc>
    <rc><c>H </c><c>   2</c></rc>
    <rc><c>H </c><c>   2</c></rc>
    <rc><c>H </c><c>   2</c></rc>
    <rc><c>H </c><c>   2</c></rc>
    <rc><c>H </c><c>   2</c></rc>
    <rc><c>H </c><c>   2</c></rc>
    <rc><c>H </c><c>   2</c></rc>
    <rc><c>H </c><c>   2</c></rc>
    <rc><c>H </c><c>   2</c></rc>
    <rc><c>H </c><c>   2</c></rc>
    <rc><c>H </c><c>   2</c></rc>
    <rc><c>H </c><c>   2</c></rc>
    <rc><c>H </c><c>   2</c></rc>
    <rc><c>H </c><c>   2</c></rc>
    <rc><c>H </c><c>   2</c></rc>
    <rc><c>H </c><c>   2</c></rc>
    <rc><c>H </c><c>   2</c></rc>
    <rc><c>H </c><c>   2</c></rc>
    <rc><c>H </c><c>   2</c></rc>
    <rc><c>H </c><c>   2</c></rc>
    <rc><c>H </c><c>   2</c></rc>
    <rc><c>H </c><c>   2</c></rc>
    <rc><c>H </c><c>   2</c></rc>
    <rc><c>H </c><c>   2</c></rc>
    <rc><c>H </c><c>   2</c></rc>
    <rc><c>O </c><c>   3</c></rc>
    <rc><c>O </c><c>   3</c></rc>
    <rc><c>O </c><c>   3</c></rc>
    <rc><c>O </c><c>   3</c></rc>
    <rc><c>O </c><c>   3</c></rc>
    <rc><c>O </c><c>   3</c></rc>
    <rc><c>O </c><c>   3</c></rc>
    <rc><c>O </c><c>   3</c></rc>
    <rc><c>O </c><c>   3</c></rc>
    <rc><c>O </c><c>   3</c></rc>
    <rc><c>O </c><c>   3</c></rc>
    <rc><c>O </c><c>   3</c></rc>
    <rc><c>O </c><c>   3</c></rc>
    <rc><c>O </c><c>   3</c></rc>
    <rc><c>O </c><c>   3</c></rc>
    <rc><c>O </c><c>   3</c></rc>
    <rc><c>O </c><c>   3</c></rc>
    <rc><c>O </c><c>   3</c></rc>
    <rc><c>O </c><c>   3</c></rc>
    <rc><c>O </c><c>   3</c></rc>
   </set>
  </array>
  <array name="atomtypes" >
   <dimension dim="1">type</dimension>
   <field type="int">atomspertype</field>
   <field type="string">element</field>
   <field>mass</field>
   <field>valence</field>
   <field type="string">pseudopotential</field>
   <set>
    <rc><c>  24</c><c>C </c><c>     12.01100000</c><c>      4.00000000</c><c>  PAW_PBE C 08Apr2002                   </c></rc>
    <rc><c>  40</c><c>H </c><c>      1.00000000</c><c>      1.00000000</c><c>  PAW_PBE H 15Jun2001                   </c></rc>
    <rc><c>  20</c><c>O </c><c>     16.00000000</c><c>      6.00000000</c><c>  PAW_PBE O 08Apr2002                   </c></rc>
   </set>
  </array>
 </atominfo>
 <structure name="initialpos" >
  <crystal>
   <varray name="basis" >
    <v>      10.37999870       0.00000000       0.00000000 </v>
    <v>       0.00000007       8.20047835       0.00000000 </v>
    <v>      -0.00000029      -0.88751377       7.73323911 </v>
   </varray>
   <i name="volume">    658.26069499 </i>
   <varray name="rec_basis" >
    <v>       0.09633913      -0.00000000       0.00000000 </v>
    <v>      -0.00000000       0.12194411       0.01399505 </v>
    <v>       0.00000000       0.00000000       0.12931192 </v>
   </varray>
  </crystal>
  <varray name="positions" >
   <v>       0.00000000       0.00000000       0.00000000 </v>
   <v>       0.90510587       0.85798452       0.96007393 </v>
   <v>       0.77196520       0.90499569       0.02610104 </v>
   <v>       0.73179180       0.07192834       0.97896359 </v>
   <v>       0.83352593       0.20093291       0.01205955 </v>
   <v>       0.80375713       0.36099184       0.93904506 </v>
   <v>       0.49999983       0.08395731       0.97205796 </v>
   <v>       0.40510592       0.22609553       0.01199886 </v>
   <v>       0.27196528       0.17908434       0.94597164 </v>
   <v>       0.23179185       0.01202895       0.99296594 </v>
   <v>       0.33352595       0.88302449       0.95999843 </v>
   <v>       0.30375715       0.72296554       0.03301291 </v>
   <v>       0.26107894       0.49699284       0.51897332 </v>
   <v>       0.16618487       0.35976443       0.46099433 </v>
   <v>       0.03323685       0.40505717       0.53105454 </v>
   <v>       0.99421949       0.56806196       0.46802898 </v>
   <v>       0.09556824       0.69939863       0.52697036 </v>
   <v>       0.06926766       0.85700267       0.43798783 </v>
   <v>       0.76107880       0.58696469       0.45295633 </v>
   <v>       0.66618485       0.72419290       0.51093528 </v>
   <v>       0.53323690       0.67902287       0.44101831 </v>
   <v>       0.49421970       0.51601822       0.50404377 </v>
   <v>       0.59556848       0.38455878       0.44495922 </v>
   <v>       0.56926788       0.22695477       0.53407020 </v>
   <v>       0.01905757       0.03279229       0.14033657 </v>
   <v>       0.90430229       0.81192408       0.81910154 </v>
   <v>       0.76768442       0.90519296       0.17096855 </v>
   <v>       0.71027487       0.05549732       0.83546190 </v>
   <v>       0.85473091       0.22723789       0.15440045 </v>
   <v>       0.76939498       0.34634709       0.80381686 </v>
   <v>       0.88873133       0.44316068       0.94923219 </v>
   <v>       0.40247370       0.26960442       0.15353130 </v>
   <v>       0.26845382       0.18045831       0.80226734 </v>
   <v>       0.21050862       0.02803539       0.13663466 </v>
   <v>       0.35357573       0.85587422       0.81811483 </v>
   <v>       0.27863906       0.74033422       0.17212722 </v>
   <v>       0.38510895       0.63528157       0.01482427 </v>
   <v>       0.28095229       0.51140820       0.66045779 </v>
   <v>       0.16629351       0.33066048       0.31636926 </v>
   <v>       0.03127044       0.41493662       0.67546718 </v>
   <v>       0.98271358       0.55358481       0.32518923 </v>
   <v>       0.09721694       0.72780217       0.67000425 </v>
   <v>       0.02641854       0.82794981       0.30850371 </v>
   <v>       0.15918574       0.92769143       0.42898992 </v>
   <v>       0.78164981       0.57285259       0.31218255 </v>
   <v>       0.66301533       0.74534744       0.65630645 </v>
   <v>       0.52827145       0.67595678       0.29784836 </v>
   <v>       0.48264576       0.52872658       0.64719103 </v>
   <v>       0.59574320       0.35358024       0.30255967 </v>
   <v>       0.54091873       0.25803383       0.67009005 </v>
   <v>       0.65452220       0.14550936       0.52434106 </v>
   <v>       0.89084612       0.64005622       0.04229286 </v>
   <v>       0.60188770       0.79563170       0.03039968 </v>
   <v>       0.68588751       0.39645488       0.14224037 </v>
   <v>       0.54149007       0.39062422       0.97267187 </v>
   <v>       0.21584951       0.41209741       0.99438304 </v>
   <v>       0.11966274       0.69537859       0.96444646 </v>
   <v>       0.16582905       0.18887453       0.62274226 </v>
   <v>       0.86313277       0.29472110       0.52554547 </v>
   <v>       0.01001616       0.01871941       0.63148004 </v>
   <v>       0.79776018       0.89609276       0.50125851 </v>
   <v>       0.37842877       0.77023038       0.56850773 </v>
   <v>       0.39053777       0.18595111       0.45394624 </v>
   <v>       0.51931352       0.05135614       0.83168846 </v>
   <v>       0.95645460       0.72799805       0.04710665 </v>
   <v>       0.68082840       0.78102371       0.95905149 </v>
   <v>       0.61435441       0.12802261       0.06496662 </v>
   <v>       0.95144503       0.14103349       0.92996741 </v>
   <v>       0.70269741       0.44494911       0.03404764 </v>
   <v>       0.11435447       0.95593471       0.90709135 </v>
   <v>       0.45645468       0.35608200       0.92496616 </v>
   <v>       0.18082849       0.30305633       0.01302119 </v>
   <v>       0.45144500       0.94304656       0.04197691 </v>
   <v>       0.20269741       0.63900827       0.93801036 </v>
   <v>       0.20876678       0.20792939       0.51405629 </v>
   <v>       0.94865109       0.27494796       0.47200366 </v>
   <v>       0.87610769       0.62796139       0.54896505 </v>
   <v>       0.22061650       0.64907339       0.47095111 </v>
   <v>       0.97369927       0.95605754       0.52799504 </v>
   <v>       0.37610792       0.45599614       0.42296455 </v>
   <v>       0.70876680       0.87602790       0.45800178 </v>
   <v>       0.44865113       0.80900935       0.49992595 </v>
   <v>       0.72061647       0.43500658       0.50099317 </v>
   <v>       0.47369954       0.12802263       0.44407772 </v>
  </varray>
  <varray name="velocities" >
   <v>      -0.00000029       0.00000004      -0.00000014 </v>
   <v>      -0.00000014       0.00000003      -0.00000008 </v>
   <v>      -0.00000024       0.00000019       0.00000013 </v>
   <v>       0.00000003       0.00000040       0.00000010 </v>
   <v>      -0.00000022       0.00000006      -0.00000026 </v>
   <v>       0.00000005       0.00000023      -0.00000003 </v>
   <v>      -0.00000011      -0.00000017      -0.00000000 </v>
   <v>      -0.00000000      -0.00000014       0.00000002 </v>
   <v>       0.00000006       0.00000023      -0.00000009 </v>
   <v>       0.00000008      -0.00000027      -0.00000004 </v>
   <v>       0.00000012       0.00000015       0.00000003 </v>
   <v>      -0.00000003      -0.00000019      -0.00000019 </v>
   <v>       0.00000002       0.00000010      -0.00000008 </v>
   <v>      -0.00000006      -0.00000018      -0.00000005 </v>
   <v>      -0.00000002       0.00000011       0.00000002 </v>
   <v>       0.00000007       0.00000003      -0.00000006 </v>
   <v>      -0.00000008       0.00000004       0.00000003 </v>
   <v>       0.00000013       0.00000036       0.00000004 </v>
   <v>      -0.00000010       0.00000009      -0.00000019 </v>
   <v>      -0.00000005      -0.00000002       0.00000007 </v>
   <v>      -0.00000009      -0.00000010      -0.00000005 </v>
   <v>       0.00000001       0.00000012      -0.00000006 </v>
   <v>      -0.00000009      -0.00000018      -0.00000005 </v>
   <v>       0.00000008      -0.00000015       0.00000010 </v>
   <v>      -0.00000066      -0.00000089      -0.00000052 </v>
   <v>       0.00000002      -0.00000065      -0.00000046 </v>
   <v>      -0.00000003       0.00000143       0.00000069 </v>
   <v>      -0.00000021       0.00000012       0.00000007 </v>
   <v>      -0.00000007       0.00000012      -0.00000086 </v>
   <v>      -0.00000002       0.00000072       0.00000008 </v>
   <v>       0.00000011      -0.00000028       0.00000025 </v>
   <v>       0.00000049       0.00000021      -0.00000080 </v>
   <v>       0.00000064       0.00000117      -0.00000028 </v>
   <v>       0.00000050      -0.00000021      -0.00000122 </v>
   <v>      -0.00000001       0.00000058      -0.00000059 </v>
   <v>      -0.00000047       0.00000053       0.00000015 </v>
   <v>       0.00000074      -0.00000112      -0.00000038 </v>
   <v>       0.00000069      -0.00000083      -0.00000018 </v>
   <v>       0.00000084      -0.00000015      -0.00000121 </v>
   <v>      -0.00000046       0.00000035      -0.00000013 </v>
   <v>      -0.00000046      -0.00000035      -0.00000040 </v>
   <v>      -0.00000002       0.00000021       0.00000100 </v>
   <v>       0.00000011      -0.00000008      -0.00000049 </v>
   <v>      -0.00000011       0.00000057       0.00000053 </v>
   <v>      -0.00000023      -0.00000068      -0.00000041 </v>
   <v>      -0.00000036       0.00000048      -0.00000067 </v>
   <v>       0.00000091       0.00000000       0.00000061 </v>
   <v>       0.00000002      -0.00000035       0.00000071 </v>
   <v>      -0.00000107       0.00000006       0.00000032 </v>
   <v>       0.00000069      -0.00000103      -0.00000061 </v>
   <v>      -0.00000043       0.00000086       0.00000094 </v>
   <v>       0.00000017       0.00000053      -0.00000074 </v>
   <v>       0.00000049      -0.00000001       0.00000041 </v>
   <v>       0.00000008      -0.00000093       0.00000034 </v>
   <v>       0.00000035       0.00000001      -0.00000002 </v>
   <v>       0.00000034      -0.00000078      -0.00000020 </v>
   <v>      -0.00000010       0.00000015      -0.00000035 </v>
   <v>       0.00000037       0.00000049      -0.00000004 </v>
   <v>      -0.00000021       0.00000031      -0.00000002 </v>
   <v>      -0.00000075      -0.00000016       0.00000009 </v>
   <v>      -0.00000019       0.00000022       0.00000075 </v>
   <v>       0.00000077      -0.00000031      -0.00000007 </v>
   <v>       0.00000053      -0.00000027       0.00000023 </v>
   <v>      -0.00000011      -0.00000009       0.00000096 </v>
   <v>      -0.00000023       0.00000020      -0.00000008 </v>
   <v>       0.00000000       0.00000004      -0.00000003 </v>
   <v>       0.00000003      -0.00000011      -0.00000003 </v>
   <v>      -0.00000009      -0.00000016       0.00000017 </v>
   <v>       0.00000007      -0.00000011       0.00000008 </v>
   <v>       0.00000008      -0.00000004      -0.00000005 </v>
   <v>      -0.00000020       0.00000016      -0.00000004 </v>
   <v>       0.00000005       0.00000002       0.00000013 </v>
   <v>       0.00000018       0.00000012       0.00000035 </v>
   <v>       0.00000031       0.00000007       0.00000002 </v>
   <v>      -0.00000001       0.00000001       0.00000012 </v>
   <v>       0.00000008      -0.00000020      -0.00000002 </v>
   <v>      -0.00000002       0.00000000      -0.00000002 </v>
   <v>      -0.00000008      -0.00000014      -0.00000009 </v>
   <v>       0.00000001      -0.00000021       0.00000009 </v>
   <v>       0.00000010      -0.00000017      -0.00000012 </v>
   <v>       0.00000010       0.00000029       0.00000029 </v>
   <v>       0.00000009      -0.00000020      -0.00000019 </v>
   <v>      -0.00000015      -0.00000014       0.00000020 </v>
   <v>       0.00000017      -0.00000001      -0.00000001 </v>
  </varray>
 </structure>
 <calculation>
  <scstep>
   <time name="dav">    4.07    4.10</time>
   <time name="total">    4.15    4.15</time>
   <energy>
    <i name="alphaZ">    409.71332809 </i>
    <i name="ewald">  -6408.38557236 </i>
    <i name="hartreedc">  -5543.45341353 </i>
    <i name="XCdc">    979.11282589 </i>
    <i name="pawpsdc">   9620.87974837 </i>
    <i name="pawaedc">  -9670.87401246 </i>
    <i name="eentropy">     -0.00685087 </i>
    <i name="bandstr">   -731.70730316 </i>
    <i name="atom">  12677.61814180 </i>
    <i name="e_fr_energy">   1332.89689177 </i>
    <i name="e_wo_entrp">   1332.90374264 </i>
    <i name="e_0_energy">   1332.90031720 </i>
   </energy>
  </scstep>
  <scstep>
   <time name="dav">    4.78    4.77</time>
   <time name="total">    4.78    4.77</time>
   <energy>
    <i name="e_fr_energy">   -392.69663791 </i>
    <i name="e_wo_entrp">   -392.69663791 </i>
    <i name="e_0_energy">   -392.69663791 </i>
   </energy>
  </scstep>
  <scstep>
   <time name="dav">    4.76    4.76</time>
   <time name="total">    4.76    4.76</time>
   <energy>
    <i name="e_fr_energy">   -521.71241650 </i>
    <i name="e_wo_entrp">   -521.71241650 </i>
    <i name="e_0_energy">   -521.71241650 </i>
   </energy>
  </scstep>
  <scstep>
   <time name="dav">    4.84    4.84</time>
   <time name="total">    4.84    4.84</time>
   <energy>
    <i name="e_fr_energy">   -524.31712502 </i>
    <i name="e_wo_entrp">   -524.31712502 </i>
    <i name="e_0_energy">   -524.31712502 </i>
   </energy>
  </scstep>
  <scstep>
   <time name="dav">    4.71    4.70</time>
   <time name="total">    4.89    4.88</time>
   <energy>
    <i name="e_fr_energy">   -524.38178370 </i>
    <i name="e_wo_entrp">   -524.38178370 </i>
    <i name="e_0_energy">   -524.38178370 </i>
   </energy>
  </scstep>
  <scstep>
   <time name="diag">    0.55    0.55</time>
   <time name="diis">    1.65    1.66</time>
   <time name="orth">    0.17    0.17</time>
   <time name="total">    2.63    2.60</time>
   <energy>
    <i name="e_fr_energy">   -497.06249025 </i>
    <i name="e_wo_entrp">   -497.06249025 </i>
    <i name="e_0_energy">   -497.06249025 </i>
   </energy>
  </scstep>
  <scstep>
   <time name="diag">    0.55    0.55</time>
   <time name="diis">    1.65    1.64</time>
   <time name="orth">    0.17    0.17</time>
   <time name="total">    2.62    2.58</time>
   <energy>
    <i name="e_fr_energy">   -493.35556353 </i>
    <i name="e_wo_entrp">   -493.35556353 </i>
    <i name="e_0_energy">   -493.35556353 </i>
   </energy>
  </scstep>
  <scstep>
   <time name="diag">    0.55    0.55</time>
   <time name="diis">    1.64    1.64</time>
   <time name="orth">    0.17    0.17</time>
   <time name="total">    2.62    2.58</time>
   <energy>
    <i name="e_fr_energy">   -493.02668291 </i>
    <i name="e_wo_entrp">   -493.02668291 </i>
    <i name="e_0_energy">   -493.02668291 </i>
   </energy>
  </scstep>
  <scstep>
   <time name="diag">    0.55    0.55</time>
   <time name="diis">    1.68    1.68</time>
   <time name="orth">    0.17    0.17</time>
   <time name="total">    2.66    2.62</time>
   <energy>
    <i name="e_fr_energy">   -493.01823126 </i>
    <i name="e_wo_entrp">   -493.01823126 </i>
    <i name="e_0_energy">