unknown system                          
           1
     8.054200    0.000000    0.000000
     0.000000    8.054200    0.000000
     0.000000    0.000000    8.054200
   Li   H 
    32    32
Direct configuration=  4620
  -0.16319194  0.75860629  0.00317002
  -0.21443013  0.73572587  0.51074034
  -0.19998011  1.25703578 -0.00301061
  -0.20980771  1.23599155  0.49194424
   0.31069336  0.76806276  0.00941228
   0.28713655  0.72187465  0.52346377
   0.30433357  1.26436829  0.02493942
   0.28683023  1.22734047  0.50608871
   0.30116054  0.51559674  0.25878120
   0.30074438  0.48123907  0.76281215
   0.29558863  1.00918722  0.24808420
   0.30686216  0.96859008  0.73296306
   0.81236253  0.51345647  0.22166957
   0.81294080  0.46072413  0.75490559
   0.78916429  0.99355695  0.24959398
   0.79824044  0.97660752  0.75581923
   0.06003926  0.26593869  0.28118872
   0.05280302  0.23492203  0.75396439
   0.06363805  0.75179395  0.25146973
   0.03872464  0.73409688  0.75898838
   0.55471003  0.24097504  0.25767540
   0.54638308  0.23193119  0.73814044
   0.54395799  0.74015998  0.26424860
   0.55726431  0.71716505  0.76489620
   0.02907508  0.49884247  0.52308626
   0.04906119  0.52348841  1.00619309
   0.04412087  0.99813060  0.50957156
   0.07449777  1.01422877  0.97457414
   0.55504388  0.48474130  0.50639644
   0.55208002  0.52421070  1.01479681
   0.54319819  1.00215151  0.49854566
   0.56061239  0.99546361  0.99588583
   0.06418218  0.50502049  0.28515485
   0.07651797  0.48601265  0.76262291
   0.04277604  0.99810882  0.26891608
   0.04810026  0.97258054  0.71805729
   0.56614451  0.47034085  0.25125184
   0.54780627  0.48378501  0.77255609
   0.53135343  0.99019565  0.24394949
   0.55166130  1.00089777  0.75641563
   0.03372757  0.30957531 -0.01175558
   0.03775860  0.23231185  0.53471953
   0.03436949  0.76614360  0.04040957
   0.03289783  0.72713447  0.51682321
   0.55094774  0.24258983  0.01093535
   0.54251610  0.23968430  0.48160539
   0.55674748  0.75551832 -0.00208434
   0.52058189  0.75720583  0.53258330
   0.30057207  0.50628542 -0.02475898
   0.30790985  0.51412142  0.51247585
   0.31154925  1.03818866 -0.00737653
   0.28528179  0.97648023  0.48924446
   0.80239818  0.54205539 -0.00016180
   0.76903995  0.46634246  0.49833082
   0.80607571  0.99738037  0.00103627
   0.76772432  0.97492565  0.51328124
   0.29940626  0.76168963  0.26428309
   0.30236386  0.73817850  0.76576078
   0.30470111  1.24251076  0.24893681
   0.30078184  1.24166168  0.78990952
   0.76837380  0.73507108  0.27698436
   0.81065409  0.72274196  0.77976404
   0.81077186  1.26997934  0.27595969
   0.79430789  1.23563820  0.73034591
