unknown system                          
           1
     8.054200    0.000000    0.000000
     0.000000    8.054200    0.000000
     0.000000    0.000000    8.054200
   Li   H 
    32    32
Direct configuration=  5020
  -0.02381415  0.72749353  0.05114373
  -0.01678832  0.72140781  0.55401489
  -0.00538917  1.24221887  0.03310047
  -0.01918915  1.23430988  0.51983336
   0.48178369  0.72920719  0.04923794
   0.45632197  0.67415331  0.52904386
   0.50767328  1.19701592  0.03733009
   0.49277194  1.20734519  0.55756076
   0.47723040  0.41505271  0.27298976
   0.49634174  0.45793898  0.81260144
   0.49223549  0.96936992  0.29593336
   0.47698350  0.96664892  0.76497612
   0.96905829  0.47759926  0.27904830
   0.96814166  0.44972865  0.80647307
   0.97542046  0.95421774  0.28944096
   0.99802732  0.95647615  0.77451493
   0.22400391  0.20519125  0.25655428
   0.24744510  0.20743032  0.78294961
   0.23099652  0.69458707  0.29846169
   0.22036758  0.69012081  0.78759223
   0.73760575  0.19232451  0.29689814
   0.74196764  0.20164247  0.81174031
   0.71097169  0.71670532  0.31192981
   0.72439413  0.69228930  0.79249605
   0.23032899  0.44456423  0.54683526
   0.24511455  0.47882337  1.02647401
   0.19934435  0.95996501  0.51632295
   0.22522001  0.94418380  1.04365047
   0.75063100  0.46052644  0.55113902
   0.74818706  0.48188235  1.07669200
   0.71123352  0.96069076  0.53865084
   0.71692717  0.96383392  1.02449591
   0.20943555  0.44008430  0.28898102
   0.24285095  0.45194535  0.79156930
   0.24628844  0.96307139  0.27469233
   0.21284316  0.94967659  0.80667787
   0.72277348  0.44988028  0.32326789
   0.74692431  0.44324732  0.79709195
   0.73512267  0.94465554  0.26601056
   0.72827201  0.95612592  0.79443183
   0.24611648  0.20714611  0.03866462
   0.24208560  0.20042375  0.51529237
   0.22062077  0.71267050  0.04987356
   0.24935639  0.70537698  0.55164974
   0.72284504  0.22924896  0.08162982
   0.74022465  0.19725285  0.52996211
   0.73206010  0.70867774  0.05162578
   0.69524793  0.67593788  0.54917669
   0.49634491  0.47043232  0.04382502
   0.51794687  0.44297297  0.53855458
   0.47550463  0.97027523  0.01440334
   0.46639430  0.97752882  0.51918194
   1.01192331  0.46120292  0.02026285
   0.97042806  0.45174480  0.53007289
   0.96401065  0.97115226  0.03301648
   0.97283181  0.97354558  0.51450379
   0.48576570  0.70806585  0.29306851
   0.48495010  0.74444020  0.78752601
   0.48597198  1.19615137  0.28106160
   0.47846020  1.19583856  0.77361520
   0.96675194  0.74141804  0.29736493
   0.95587196  0.67438536  0.80340779
   0.99610641  1.23179817  0.28796065
   0.97508225  1.19361641  0.79259416
