unknown system                          
           1
     8.054200    0.000000    0.000000
     0.000000    8.054200    0.000000
     0.000000    0.000000    8.054200
   Li   H 
    32    32
Direct configuration=  4420
  -0.14130883  0.81387464  0.00511901
  -0.12212121  0.79962225  0.51264085
  -0.18088446  1.33381753  0.01205348
  -0.14041871  1.30186853  0.49053398
   0.33630380  0.79477055  0.03278311
   0.37661345  0.76677434  0.52409002
   0.36499262  1.31963249 -0.00351924
   0.33145205  1.28981626  0.53031799
   0.36293628  0.55046523  0.25753579
   0.37678722  0.55564965  0.76606725
   0.35893642  1.02780810  0.30181905
   0.33798714  1.04360880  0.77674770
   0.85790133  0.54167096  0.24346554
   0.86161849  0.56926495  0.75979604
   0.85746960  1.08029079  0.28050948
   0.89437419  1.05048382  0.77250151
   0.10986538  0.30777414  0.26584645
   0.09979516  0.28978649  0.76277352
   0.09531213  0.79274278  0.26632805
   0.11118234  0.79057311  0.77463702
   0.57127320  0.30230689  0.26335221
   0.61199185  0.28405862  0.77407420
   0.62286909  0.78684034  0.28033684
   0.62973247  0.80087962  0.76172666
   0.08269349  0.54113742  0.52387274
   0.10523743  0.55226675  1.00400385
   0.09425816  1.02579937  0.50466590
   0.12627928  1.06178595  1.02752066
   0.62156121  0.53479752  0.53759557
   0.61309814  0.55908326  1.00227556
   0.63521643  1.05725100  0.52879280
   0.61074965  1.05249335  1.02149319
   0.09990434  0.54614102  0.25953432
   0.09331580  0.53564710  0.76121120
   0.12345070  1.03361831  0.27811537
   0.11271141  1.02194929  0.78827378
   0.61027281  0.57153840  0.28335188
   0.58348308  0.53786420  0.79009025
   0.62744543  1.04384985  0.28299482
   0.62127353  1.06970637  0.77777469
   0.10362672  0.34510582  0.02242198
   0.09050899  0.29171335  0.49984550
   0.09444671  0.78385342  0.01702305
   0.12021236  0.77707496  0.54388063
   0.62005334  0.28696928  0.01587153
   0.60091629  0.29068010  0.50890422
   0.58836923  0.80419031 -0.00196333
   0.60458058  0.80843046  0.51713481
   0.35613676  0.54316171  0.01054676
   0.33742126  0.54351219  0.49592815
   0.35504043  1.05198840  0.03793008
   0.37088703  1.01757815  0.53243680
   0.85157882  0.54734353  0.00790845
   0.87745666  0.53451557  0.51932969
   0.87545444  1.05838099  0.02746122
   0.87488208  1.01869105  0.51820904
   0.36591694  0.80428028  0.28341454
   0.34999061  0.78382096  0.77901322
   0.32317797  1.29565666  0.26519923
   0.34507191  1.28790590  0.76434811
   0.84173285  0.81581028  0.25765290
   0.87639112  0.79284480  0.75304611
   0.84478766  1.29295624  0.23328252
   0.82738644  1.31102034  0.75036646
