unknown system                          
           1
     8.054200    0.000000    0.000000
     0.000000    8.054200    0.000000
     0.000000    0.000000    8.054200
   Li   H 
    32    32
Direct configuration=  3820
   0.07815602  0.82480583  0.15738705
   0.03495727  0.79465282  0.69469758
   0.03562417  1.31172396  0.17471511
   0.04272177  1.30861613  0.63638508
   0.53786490  0.81726586  0.17824798
   0.54338117  0.82009408  0.69473741
   0.55864160  1.31639892  0.18049941
   0.54896101  1.31479890  0.68098740
   0.56174516  0.56183629  0.45521477
   0.54819882  0.55886637  0.92297878
   0.55111783  1.05264806  0.43726799
   0.54849868  1.06333908  0.93262729
   1.05234415  0.56735383  0.40718961
   1.04871798  0.55470627  0.93897974
   1.03115107  1.02411440  0.39952712
   1.05657543  1.07888968  0.92567992
   0.29168111  0.28819773  0.41959012
   0.28856550  0.30022533  0.94356897
   0.31187093  0.78648447  0.41449689
   0.30496397  0.77834864  0.91181743
   0.79003135  0.29889837  0.42366411
   0.79162608  0.30052177  0.92592298
   0.81276436  0.79687211  0.39957851
   0.81405750  0.80054316  0.93975970
   0.32189463  0.53844551  0.67766523
   0.29673643  0.53769144  1.18548994
   0.27710067  1.06323163  0.66786044
   0.30569441  1.05152546  1.16014238
   0.80781834  0.57180344  0.68596041
   0.80388236  0.56710444  1.17390718
   0.79453271  1.04803259  0.69713922
   0.77976412  1.07649730  1.16604635
   0.31164513  0.52785531  0.43133206
   0.30378063  0.53221584  0.91038562
   0.28795005  1.02781040  0.41820422
   0.28797713  1.06285158  0.90916256
   0.79870977  0.54990304  0.43494315
   0.79780569  0.54670375  0.92078564
   0.76261368  1.04054762  0.43870437
   0.79775753  1.06354700  0.93879665
   0.31268560  0.28516142  0.18490563
   0.29249989  0.28715705  0.68223233
   0.28243742  0.79819980  0.18752896
   0.30058870  0.80284835  0.68899488
   0.79686155  0.29339210  0.18522794
   0.79423960  0.30692840  0.68970839
   0.80848467  0.80846407  0.17487439
   0.80254202  0.80556073  0.66128341
   0.55887097  0.56115506  0.16095137
   0.53164220  0.54790883  0.68167257
   0.52830934  1.04516137  0.16630200
   0.54096640  1.05157699  0.68265768
   1.07095716  0.57327828  0.16827402
   1.03730464  0.52913272  0.67835456
   1.06348985  1.07850562  0.17594656
   1.03293876  1.04935119  0.64247515
   0.54326016  0.77606329  0.42143954
   0.57063826  0.79847282  0.90804351
   0.52869661  1.31198292  0.44079041
   0.55734553  1.27916247  0.95397759
   1.05757100  0.80061415  0.42063260
   1.05353095  0.77403923  0.92132763
   1.06726283  1.29417577  0.39867933
   1.03967785  1.29335703  0.91766801
