unknown system                          
           1
     8.054200    0.000000    0.000000
     0.000000    8.054200    0.000000
     0.000000    0.000000    8.054200
   Li   H 
    32    32
Direct configuration=  7620
  -0.07101557  0.80506296 -0.25227104
  -0.12069216  0.83054618  0.24495271
  -0.13179446  1.32649269 -0.25663717
  -0.11525311  1.30562548  0.25421114
   0.38853896  0.82762406 -0.27609831
   0.36454066  0.81941696  0.24449749
   0.36366073  1.31374763 -0.25836203
   0.39158189  1.31755848  0.26941408
   0.39853836  0.55116807  0.02194707
   0.38558940  0.56890981  0.51047053
   0.35647981  1.06954727 -0.04543573
   0.38232738  1.05988635  0.47942648
   0.87836242  0.56244695 -0.00264311
   0.89600771  0.56811013  0.48413607
   0.88924221  1.06101186 -0.01244915
   0.87062142  1.07592932  0.50417024
   0.13124586  0.31173635 -0.01380222
   0.14478662  0.31854427  0.50086135
   0.14323536  0.82080588 -0.01468592
   0.11368394  0.81865908  0.49520641
   0.63687317  0.30332060  0.00526856
   0.62888697  0.33581580  0.48334429
   0.65756380  0.82302238  0.00696971
   0.63807556  0.80863821  0.49218600
   0.12804503  0.54108738  0.25153779
   0.12442888  0.53994133  0.74119823
   0.16057605  1.07565021  0.24325508
   0.13784671  1.06325390  0.73167983
   0.65403524  0.58098720  0.23541083
   0.62653866  0.57414586  0.75854335
   0.63736714  1.06372547  0.23297767
   0.65400887  1.06798062  0.74560667
   0.12213870  0.56403813  0.03217655
   0.14102921  0.55222045  0.50156485
   0.14184911  1.08212305  0.00905028
   0.13785529  1.04953050  0.50795570
   0.64590582  0.59006021 -0.00864629
   0.63877805  0.56975130  0.50078644
   0.61501151  1.07659833 -0.01585918
   0.63935356  1.08872451  0.47641043
   0.12572520  0.29415171 -0.26780869
   0.14588214  0.30158111  0.25813162
   0.14339764  0.84267753 -0.27899936
   0.12471255  0.84557879  0.24244860
   0.60519259  0.32452692 -0.25195536
   0.64727179  0.31073863  0.22998825
   0.66433147  0.83199011 -0.25233960
   0.62994976  0.83171395  0.23285139
   0.37916265  0.57029750 -0.23922833
   0.37299382  0.56107132  0.25637506
   0.40614867  1.07645183 -0.27361071
   0.40168497  1.04736374  0.21825049
   0.90523418  0.58390066 -0.25745968
   0.88943315  0.55339875  0.24413004
   0.89363370  1.08953039 -0.24572309
   0.89066724  1.07440992  0.24088825
   0.37537882  0.84021409 -0.02733151
   0.37866639  0.80338517  0.49028446
   0.35584182  1.30358732 -0.01204011
   0.38203028  1.31941363  0.48022852
   0.88982853  0.82917950 -0.00798977
   0.87642292  0.82437560  0.50040809
   0.88003489  1.32420299  0.01096854
   0.89811833  1.34863748  0.49159004
