unknown system                          
           1
     8.054200    0.000000    0.000000
     0.000000    8.054200    0.000000
     0.000000    0.000000    8.054200
   Li   H 
    32    32
Direct configuration=  9020
  -0.24424151  0.78197037 -0.26092381
  -0.24166371  0.79717521  0.25282662
  -0.24383398  1.28572459 -0.26020465
  -0.23574150  1.29058850  0.24638898
   0.26482801  0.78546287 -0.22991844
   0.26056041  0.75296585  0.23764837
   0.25893442  1.28098195 -0.21304099
   0.28245672  1.27449917  0.25748658
   0.27831869  0.50945583  0.03493466
   0.25948570  0.53148283  0.51631484
   0.26879572  1.01539875 -0.01645403
   0.27124007  1.04976262  0.49551379
   0.76804348  0.55053784  0.00839839
   0.78427075  0.51962323  0.48658426
   0.77711244  1.05045910 -0.00012611
   0.74871441  1.02250698  0.52262421
   0.01197895  0.30865468 -0.00675942
   0.01021614  0.29292008  0.50672555
   0.02264722  0.79647325 -0.00085538
   0.02069959  0.78291155  0.50698616
   0.53292884  0.29784438  0.01859183
   0.48939738  0.28903204  0.53568562
   0.52464648  0.77693565 -0.00824957
   0.51749710  0.78499046  0.51977325
  -0.00253153  0.54829945  0.24862093
   0.02424515  0.55525199  0.76725443
   0.02693406  1.01494188  0.24156797
   0.00842916  1.04512277  0.74080970
   0.49790325  0.55439402  0.26948064
   0.51209713  0.53242672  0.77693555
   0.50680501  1.04154598  0.23419174
   0.49959472  1.04275654  0.73675947
   0.04867262  0.55676402  0.02066511
   0.02005286  0.53549257  0.53161872
   0.01434140  1.03928849  0.00167775
   0.00740268  1.01781527  0.50513007
   0.49364224  0.56611001  0.00173044
   0.51561433  0.55166814  0.48348521
   0.49600482  1.03715976 -0.00587496
   0.51573698  1.03763700  0.49269895
   0.00426036  0.26144479 -0.24912245
  -0.01500436  0.30867711  0.26285440
   0.01467779  0.78987903 -0.26124724
   0.04030893  0.80395520  0.23514627
   0.48425947  0.28252169 -0.22884745
   0.49762570  0.26777514  0.29298562
   0.50674792  0.78180612 -0.26483280
   0.49050257  0.78023785  0.27006587
   0.26458330  0.53952700 -0.24616450
   0.27041859  0.49937613  0.26430740
   0.27943035  1.06708740 -0.25086087
   0.27611980  1.02582754  0.22063406
   0.77536691  0.55669608 -0.24657988
   0.73707239  0.53605281  0.23797703
   0.74662189  1.05284863 -0.24079170
   0.78619815  1.03816784  0.21808805
   0.28221565  0.77760313 -0.01173330
   0.24550186  0.79051788  0.47373312
   0.28701484  1.29800896  0.00475995
   0.25272918  1.29556727  0.49936618
   0.75072734  0.80182932  0.00589344
   0.78923415  0.80020945  0.50505104
   0.75622777  1.28583949 -0.02091301
   0.76066348  1.27436773  0.49701363
