unknown system                          
           1
     8.054200    0.000000    0.000000
     0.000000    8.054200    0.000000
     0.000000    0.000000    8.054200
   Li   H 
    32    32
Direct configuration=  8420
  -0.22697420  0.64414720 -0.15181952
  -0.21486246  0.65773304  0.29829308
  -0.18173396  1.15553252 -0.16096876
  -0.20784170  1.13483779  0.33975694
   0.29636047  0.63437014 -0.17875525
   0.26166124  0.65860130  0.33364059
   0.30662987  1.12082330 -0.15735796
   0.27034388  1.10627274  0.32372682
   0.26482239  0.40531025  0.07413882
   0.25958441  0.38223435  0.58135075
   0.31174402  0.89335633  0.08127469
   0.26710314  0.88024744  0.60717023
   0.78308045  0.39529718  0.04856632
   0.76864567  0.39807982  0.56776901
   0.79928839  0.88614144  0.07779389
   0.77568529  0.88491015  0.57550889
   0.02209690  0.14270358  0.08169192
   0.01132301  0.13686795  0.58218836
   0.03206382  0.62400596  0.08127379
   0.02011697  0.62408288  0.57833584
   0.53932855  0.13906767  0.08670405
   0.53931131  0.13200207  0.59326543
   0.52562398  0.65004196  0.08201434
   0.54219053  0.63741395  0.57415132
   0.02859079  0.38746287  0.34528399
   0.04507268  0.39111770  0.80706775
   0.02610895  0.87659947  0.33779249
   0.03734258  0.88255543  0.82017231
   0.51851670  0.39515259  0.30233836
   0.53022866  0.38715299  0.82861782
   0.54110245  0.89336000  0.31579100
   0.53455836  0.89309576  0.83193600
   0.01050699  0.39266768  0.10469782
   0.03677961  0.41588277  0.57944983
   0.05368083  0.89297074  0.05996206
   0.02180051  0.89574143  0.57986980
   0.53132066  0.39157029  0.08088627
   0.51520323  0.39806649  0.58816597
   0.57216396  0.92570763  0.06791855
   0.51275408  0.88154839  0.59409678
   0.03498727  0.13911605 -0.18356431
   0.03074367  0.13207781  0.31185735
   0.02356444  0.62702236 -0.18461179
   0.03475715  0.64772418  0.34213562
   0.57770194  0.12784619 -0.18174357
   0.56139545  0.12829889  0.29936960
   0.51462102  0.64184228 -0.14579237
   0.53328281  0.65179540  0.30232852
   0.29421671  0.39561066 -0.17262603
   0.27708449  0.36943159  0.33028941
   0.28917401  0.87870121 -0.15259849
   0.29941051  0.89315725  0.29118004
   0.77108499  0.40356777 -0.17709953
   0.78315064  0.39792081  0.32458267
   0.79296197  0.89564732 -0.15643865
   0.80101527  0.89140217  0.33474358
   0.28302341  0.65899139  0.08374747
   0.28368733  0.65314538  0.59168852
   0.28489476  1.16403140  0.06029008
   0.29835684  1.10228041  0.57322530
   0.78718406  0.62463754  0.06723247
   0.77907503  0.62732998  0.60731071
   0.79613390  1.15070486  0.08409993
   0.77455517  1.13004130  0.58424699
