unknown system                          
           1
     8.054200    0.000000    0.000000
     0.000000    8.054200    0.000000
     0.000000    0.000000    8.054200
   Li   H 
    32    32
Direct configuration=  5220
  -0.02228553  0.74011976  0.03051379
   0.00435972  0.73055733  0.54259246
   0.02175142  1.26158080  0.03768678
   0.01328642  1.22916796  0.54705003
   0.49434538  0.72844020  0.05699331
   0.49582151  0.74222839  0.52959457
   0.50230233  1.22220795  0.04115669
   0.51190172  1.23093291  0.55997986
   0.50874782  0.48398026  0.29346187
   0.49704303  0.46877453  0.78489781
   0.49700920  0.98940405  0.27040348
   0.48569177  0.96291081  0.80404496
   1.00434156  0.47753560  0.28908295
   1.02702700  0.46569330  0.76810225
   0.96986431  0.98392881  0.27663653
   0.98744048  0.99353589  0.79976744
   0.24855993  0.23750333  0.28818747
   0.26500848  0.20578592  0.79020373
   0.24561075  0.74709199  0.28958107
   0.23813594  0.72410952  0.78326300
   0.75419395  0.23021544  0.31597783
   0.76988066  0.23780253  0.80453506
   0.76760780  0.73594540  0.27609124
   0.73239425  0.69998764  0.78394691
   0.26875664  0.47528276  0.54686331
   0.25638114  0.48936260  1.05257605
   0.23615614  1.00002600  0.53596284
   0.23975219  0.95968540  1.05496598
   0.76510538  0.47876972  0.53777735
   0.74378243  0.45508147  1.04042846
   0.74906307  0.99597117  0.56850335
   0.71634888  0.99238591  1.01251074
   0.26964778  0.48583545  0.29933742
   0.27363446  0.48109134  0.78031696
   0.24170245  0.98422998  0.27500803
   0.25831217  0.96586542  0.75893348
   0.77352925  0.47466993  0.26814335
   0.77101506  0.47364801  0.77393044
   0.73573114  0.97452069  0.29595002
   0.77979207  0.96791722  0.79510891
   0.26019045  0.23091189  0.02090951
   0.28054547  0.24710315  0.54497852
   0.26862367  0.70834596  0.03414089
   0.22863200  0.73749192  0.55974184
   0.73929796  0.23537537  0.06004636
   0.73698226  0.23644207  0.54867159
   0.73688691  0.72538885  0.02725688
   0.73151877  0.74248667  0.52120662
   0.52827560  0.46371043  0.02104087
   0.50476695  0.48271279  0.50026619
   0.48727960  0.96238885  0.03973717
   0.51005767  0.98386220  0.52966267
   1.00750076  0.50498930  0.02442195
   0.98914274  0.47320364  0.53005221
   0.98548834  0.97503714  0.02478670
   0.98510793  0.95244032  0.52092827
   0.51779731  0.75200351  0.28040073
   0.47496941  0.72063612  0.78293335
   0.50282449  1.21526523  0.31297927
   0.52847415  1.20041032  0.78231184
   1.01386572  0.69005186  0.29301375
   0.99193792  0.72553251  0.77849825
   1.02614430  1.23184692  0.29813597
   1.04601978  1.23792344  0.78219966
