unknown system                          
           1
     8.054200    0.000000    0.000000
     0.000000    8.054200    0.000000
     0.000000    0.000000    8.054200
   Li   H 
    32    32
Direct configuration=  1620
  -0.14486647  0.84325579  0.15807212
  -0.12115088  0.87079953  0.62332174
  -0.12290784  1.33336312  0.14858601
  -0.11477945  1.35380784  0.66654216
   0.36922426  0.83729997  0.14807965
   0.37422399  0.85274164  0.63638177
   0.37753269  1.34755841  0.13896392
   0.35708646  1.33942689  0.62803751
   0.34094879  0.60192720  0.37897047
   0.39164203  0.61481207  0.86840421
   0.36548614  1.09958344  0.36005354
   0.40087976  1.08926045  0.88780598
   0.87838160  0.59827828  0.41034504
   0.88163777  0.58572236  0.89083897
   0.88374438  1.11749245  0.38704581
   0.83644828  1.08455785  0.89721076
   0.11381745  0.34870958  0.39035520
   0.14801971  0.34312351  0.88756988
   0.13265427  0.83962582  0.38585830
   0.10244613  0.86334205  0.86823944
   0.64437171  0.33269132  0.36899593
   0.60647688  0.34813919  0.89142423
   0.62158582  0.86436662  0.40484973
   0.61962519  0.83787045  0.90090365
   0.14789925  0.59147181  0.62579388
   0.12110517  0.60801006  1.13515153
   0.10054923  1.11660439  0.63322028
   0.13580842  1.10027154  1.12370221
   0.65461825  0.58907534  0.66641776
   0.61821628  0.59102955  1.16111859
   0.62282916  1.09732157  0.66213698
   0.62512098  1.09223998  1.18095377
   0.10438913  0.61976058  0.38514080
   0.11343628  0.61048020  0.87714088
   0.09386887  1.08092957  0.39243588
   0.13079648  1.11612440  0.86605038
   0.61686467  0.61769047  0.40651930
   0.63679772  0.59305970  0.90667867
   0.57488092  1.10902857  0.40906714
   0.60332464  1.08190831  0.91170837
   0.12785050  0.37310128  0.15009195
   0.09805700  0.34064353  0.65089516
   0.14008577  0.83966763  0.13734724
   0.11990188  0.88283860  0.62448272
   0.60532491  0.34723631  0.15364771
   0.57980821  0.34500884  0.65004928
   0.59667631  0.86513218  0.13555799
   0.62261657  0.83381263  0.65563776
   0.36945065  0.60918360  0.12738912
   0.36456542  0.62336732  0.63509992
   0.37920530  1.11786666  0.13403513
   0.35471005  1.08880563  0.61765962
   0.85000557  0.58804067  0.12941158
   0.86896860  0.60573083  0.64450351
   0.87710368  1.09645045  0.16798527
   0.85166928  1.11605112  0.64350434
   0.37077752  0.84178348  0.39655553
   0.34806039  0.84669619  0.90630070
   0.36649488  1.35541640  0.37124699
   0.34405297  1.35849042  0.87591966
   0.88361988  0.85891187  0.39112225
   0.87495950  0.86169785  0.86266830
   0.88888036  1.34255291  0.37891650
   0.89699511  1.34404942  0.88347764
