unknown system                          
           1
     8.054200    0.000000    0.000000
     0.000000    8.054200    0.000000
     0.000000    0.000000    8.054200
   Li   H 
    32    32
Direct configuration=  1820
  -0.14910549  0.79774475  0.22592331
  -0.16755468  0.80701380  0.71284842
  -0.17551062  1.29893064  0.18544946
  -0.17112660  1.29730282  0.70421997
   0.34064765  0.78475971  0.20525492
   0.34269493  0.83693503  0.68333213
   0.33051436  1.30981187  0.19046234
   0.33499201  1.32736122  0.69965417
   0.33930964  0.55507799  0.42066291
   0.32962759  0.58218795  0.92253019
   0.34195659  1.06749296  0.45124583
   0.36374453  1.07977476  0.93706823
   0.81361512  0.56755672  0.45364156
   0.82419449  0.55811789  0.96143910
   0.87463530  1.05070136  0.44202447
   0.82037550  1.05447314  0.93107379
   0.10085509  0.29161078  0.44879871
   0.08376645  0.28876559  0.93700650
   0.10288459  0.78128787  0.45558641
   0.08000061  0.79933638  0.92642453
   0.57369759  0.33600629  0.42389563
   0.56763167  0.34476934  0.94244835
   0.61000207  0.80457603  0.45464885
   0.61519333  0.79329811  0.93814893
   0.07918136  0.56524965  0.67853966
   0.08672473  0.53942660  1.17581671
   0.08894443  1.05557181  0.70343383
   0.10751796  1.02214651  1.19016379
   0.58366645  0.56769870  0.69061411
   0.60143888  0.55583601  1.19716511
   0.58563929  1.05896771  0.69669326
   0.59691208  1.03966483  1.19402587
   0.07644818  0.52782083  0.44669324
   0.04448968  0.54765324  0.92977256
   0.09506023  1.02122762  0.42770793
   0.11000267  1.04613231  0.96752880
   0.58391852  0.56191814  0.45805373
   0.57114213  0.56388626  0.96520939
   0.59682699  1.03223153  0.44792767
   0.57607388  1.03632173  0.93486636
   0.09743777  0.29747942  0.19018610
   0.08074093  0.26846340  0.67122657
   0.09218464  0.80523275  0.18236849
   0.15298429  0.79785349  0.69498009
   0.59507596  0.28059017  0.16519151
   0.55899059  0.29482692  0.66121407
   0.61081091  0.79807858  0.21604960
   0.60356512  0.78806196  0.68718635
   0.32333006  0.54049460  0.16190101
   0.32610991  0.55115394  0.68193912
   0.34248684  1.06365070  0.20321676
   0.32657321  1.05052729  0.68745137
   0.85424093  0.55901090  0.19113913
   0.83234460  0.54095057  0.68279508
   0.85966522  1.06700985  0.19431808
   0.83693699  1.03550006  0.68036339
   0.34558804  0.79635832  0.44198075
   0.39357122  0.81986734  0.93239084
   0.33548530  1.31149768  0.42556326
   0.32380734  1.31607416  0.92368142
   0.85521198  0.83366446  0.45563528
   0.83667259  0.80011560  0.92307017
   0.85660735  1.29400276  0.46949640
   0.83594715  1.29546092  0.93538109
