unknown system                          
           1
     8.054200    0.000000    0.000000
     0.000000    8.054200    0.000000
     0.000000    0.000000    8.054200
   Li   H 
    32    32
Direct configuration=  6620
  -0.23051065  0.79985469 -0.05513859
  -0.21769925  0.82260629  0.42884837
  -0.22528848  1.31500503 -0.07802844
  -0.22852161  1.31880922  0.41145495
   0.26251441  0.79153155 -0.08311957
   0.26882066  0.82535529  0.39115888
   0.26894597  1.30225340 -0.08743787
   0.28104626  1.31541540  0.41413317
   0.27594483  0.57414486  0.16715520
   0.25016270  0.56315692  0.66256527
   0.25684224  1.03922547  0.14863857
   0.28002604  1.06658279  0.67507163
   0.76568132  0.57051067  0.17738358
   0.76946239  0.57092598  0.66262576
   0.79454778  1.08177154  0.16388577
   0.77985730  1.05552364  0.64216770
   0.04004277  0.34499298  0.18968647
   0.02048440  0.34160282  0.67595160
   0.01285376  0.82220277  0.17283656
   0.05245898  0.82484570  0.67678840
   0.52621367  0.31899214  0.15060030
   0.52355682  0.32719963  0.66593267
   0.52893521  0.83305525  0.15993050
   0.49519704  0.78466505  0.64741336
   0.01401126  0.54733957  0.41925911
  -0.01902313  0.55426540  0.95426350
   0.02958872  1.08056052  0.42548578
   0.02602047  1.07564378  0.91821464
   0.51759526  0.56530657  0.41121348
   0.49037938  0.54485281  0.92077917
   0.51511983  1.07269930  0.38498803
   0.54393207  1.05192575  0.91796493
   0.00121319  0.56315092  0.18807961
   0.02576083  0.57822645  0.69201863
   0.05168427  1.05455944  0.18723558
   0.04066109  1.06865166  0.66763654
   0.50240902  0.54765980  0.18602501
   0.53427144  0.54483499  0.66449451
   0.56242988  1.07943118  0.15964096
   0.53538498  1.06197232  0.65303248
   0.03206045  0.33733788 -0.07938464
   0.02809195  0.31074087  0.45029267
   0.00163869  0.80366274 -0.08929642
   0.03032651  0.81374029  0.43852998
   0.53147383  0.30116922 -0.07250871
   0.50936391  0.30298898  0.39614656
   0.54135476  0.78478625 -0.06348789
   0.51012262  0.80678744  0.39476391
   0.26075701  0.53838628 -0.07840898
   0.24926081  0.53764780  0.37955098
   0.26867502  1.05796032 -0.07134799
   0.30110794  1.07739686  0.43587076
   0.74180595  0.55837423 -0.08123702
   0.76730477  0.56201182  0.42057077
   0.78141080  1.07037713 -0.07769075
   0.81145095  1.05943578  0.39674870
   0.24872621  0.82459266  0.15989336
   0.25221485  0.79263167  0.64769552
   0.26536446  1.31136193  0.17505653
   0.29514562  1.31967949  0.66834281
   0.77790401  0.82902752  0.20663426
   0.75673569  0.79983045  0.66655644
   0.78147144  1.32566848  0.16077192
   0.78097198  1.32668873  0.68943002
