unknown system                          
           1
     8.054200    0.000000    0.000000
     0.000000    8.054200    0.000000
     0.000000    0.000000    8.054200
   Li   H 
    32    32
Direct configuration=  9420
  -0.24496172  0.84810586 -0.30503761
  -0.24348018  0.87459439  0.20885857
  -0.25327815  1.34144278 -0.31065130
  -0.23195608  1.35778253  0.19121180
   0.25157664  0.83870736 -0.30071546
   0.25671818  0.84573007  0.18747698
   0.26732130  1.35241034 -0.28470586
   0.27264469  1.36438555  0.20551786
   0.28210790  0.60407450 -0.05960248
   0.24934909  0.61335625  0.41633358
   0.25176450  1.12467331 -0.05184892
   0.21683720  1.10976035  0.45202031
   0.78975848  0.56446284 -0.05621389
   0.78469661  0.57944284  0.45299229
   0.75134592  1.09693868 -0.06532953
   0.75493070  1.11017241  0.45884084
   0.00633946  0.33637851 -0.05258744
   0.00059259  0.35357434  0.45004084
   0.03533791  0.85676526 -0.05831438
   0.01403880  0.84493432  0.42037597
   0.49795019  0.36555295 -0.04415046
   0.51161240  0.34836646  0.44445495
   0.54209965  0.84814559 -0.05156586
   0.50891480  0.86060379  0.45873789
   0.03443839  0.59590906  0.18376367
   0.01434725  0.61542707  0.69977495
  -0.00550168  1.09209770  0.20079011
  -0.00055844  1.10933070  0.68753845
   0.55401998  0.57819177  0.22271797
   0.52117112  0.63545943  0.72298554
   0.48602273  1.09628934  0.17150491
   0.51072794  1.09543419  0.70103919
   0.04461681  0.62261332 -0.07386182
   0.00284351  0.59106564  0.42564726
   0.01695022  1.09438432 -0.03130593
  -0.01199876  1.09844478  0.43299181
   0.53171673  0.59819274 -0.05024590
   0.47835068  0.61868134  0.44319106
   0.53535008  1.10607035 -0.06863738
   0.49656327  1.10329846  0.45099581
  -0.00824047  0.37149812 -0.30615169
   0.02243406  0.33073633  0.20646557
   0.00650509  0.84086235 -0.30172797
   0.02228937  0.82817413  0.15462729
   0.48587128  0.36259970 -0.28545110
   0.52577981  0.33744211  0.19393812
   0.51534784  0.88133380 -0.26967523
   0.52614013  0.85623307  0.18384034
   0.25617066  0.58229584 -0.32096015
   0.26837717  0.61897426  0.19703393
   0.24331727  1.08191444 -0.28772602
   0.27784699  1.10078627  0.21862844
   0.73432653  0.59479260 -0.33049526
   0.77429354  0.61507901  0.19077271
   0.75243022  1.11284149 -0.30903717
   0.74466767  1.10420142  0.21948052
   0.30763035  0.89503338 -0.06189460
   0.23472021  0.82119093  0.43634899
   0.24279512  1.38162525 -0.04365183
   0.26175634  1.35525915  0.44616184
   0.77531599  0.86061357 -0.06053495
   0.77970901  0.84871294  0.44578082
   0.76580532  1.33548390 -0.05635883
   0.74542905  1.34608022  0.44332932
