unknown system                          
           1
     8.054200    0.000000    0.000000
     0.000000    8.054200    0.000000
     0.000000    0.000000    8.054200
   Li   H 
    32    32
Direct configuration=  2220
  -0.09210429  0.81140744  0.20224925
  -0.10221926  0.82823173  0.68337494
  -0.11177350  1.29507937  0.21236952
  -0.07572603  1.34252146  0.69441563
   0.41767354  0.81034218  0.22930117
   0.42165170  0.82689396  0.70112835
   0.39168735  1.32520643  0.20430985
   0.38652452  1.33894684  0.69905405
   0.42370116  0.56498486  0.44235091
   0.39484467  0.58886433  0.95631434
   0.39742419  1.05454828  0.43686556
   0.39646910  1.06474734  0.94504386
   0.91114974  0.54880601  0.47163366
   0.91269045  0.59433868  0.97911810
   0.92200889  1.03928284  0.43245050
   0.90717146  1.06069301  0.94328300
   0.13743627  0.29424176  0.43746238
   0.14881294  0.32859367  0.94445375
   0.13747850  0.79327064  0.43998361
   0.15587891  0.83467330  0.97742777
   0.66144064  0.29008465  0.46917958
   0.64511232  0.33007371  0.95263677
   0.67011014  0.81089526  0.45422302
   0.64710086  0.83801373  0.95188049
   0.14415415  0.58212836  0.71076748
   0.17660380  0.57694134  1.18397713
   0.14872233  1.06384140  0.69254147
   0.13496248  1.10089328  1.16930812
   0.66509959  0.56471199  0.67581556
   0.68131701  0.55351923  1.20683793
   0.69305177  1.07401772  0.69595127
   0.66045432  1.06945296  1.18638286
   0.14274076  0.54443312  0.43615494
   0.15777200  0.60453624  0.94839675
   0.16907098  1.04464445  0.43038247
   0.15958292  1.09475385  0.96584409
   0.66655378  0.56047341  0.45122506
   0.67694695  0.58487837  0.96809241
   0.65644829  1.05544536  0.45092316
   0.69057096  1.09109347  0.93796681
   0.16644590  0.33984685  0.17404809
   0.17062649  0.36974770  0.69609466
   0.16298370  0.79215813  0.20678282
   0.14144017  0.81397945  0.68289530
   0.66139740  0.30826637  0.20878411
   0.67971429  0.32709738  0.71108345
   0.63268894  0.82785628  0.17747023
   0.69530000  0.85522807  0.72262129
   0.39680087  0.58365678  0.21992923
   0.40899014  0.59349393  0.72215026
   0.40531146  1.07618260  0.18219380
   0.41843292  1.06926900  0.71907740
   0.91421141  0.54061895  0.20910366
   0.91365538  0.56973657  0.68240406
   0.92367147  1.04030167  0.18056836
   0.93136328  1.08090528  0.68580750
   0.42331533  0.80499172  0.49122308
   0.39316644  0.83468880  0.94578423
   0.45877837  1.32763528  0.44969909
   0.39278611  1.33200567  0.94384649
   0.89273401  0.81936986  0.44323196
   0.91149077  0.81564744  0.96015985
   0.91854947  1.29709129  0.47409750
   0.92793732  1.31627447  0.98168943
