unknown system                          
           1
     8.054200    0.000000    0.000000
     0.000000    8.054200    0.000000
     0.000000    0.000000    8.054200
   Li   H 
    32    32
Direct configuration=  9220
  -0.24603913  0.81328258 -0.24810539
  -0.26401595  0.88627527  0.28116251
  -0.27009129  1.31910413 -0.26287434
  -0.29214972  1.34580573  0.22611598
   0.25387848  0.83543085 -0.23800780
   0.21329626  0.83158244  0.26144304
   0.22472989  1.34103065 -0.22281154
   0.24348889  1.35884721  0.24289137
   0.23951337  0.59557018  0.02648406
   0.19266059  0.57425177  0.50695823
   0.22395761  1.11946447  0.02764574
   0.21975454  1.10680824  0.50382250
   0.72224551  0.59702846  0.02658373
   0.74831944  0.59917325  0.50352041
   0.71764692  1.08326293  0.01230150
   0.74088303  1.10287464  0.50278050
  -0.03015702  0.35332443  0.01252679
  -0.02230687  0.33609684  0.49900027
  -0.00320055  0.83306332  0.00743802
  -0.02266580  0.86076029  0.49332091
   0.49035253  0.34623770  0.02564712
   0.47804275  0.33956785  0.52581584
   0.49284208  0.84738438  0.02423203
   0.46573612  0.84677205  0.50764496
  -0.02070707  0.60862280  0.24666933
  -0.00036458  0.57760596  0.75371355
  -0.03438597  1.10695582  0.26598547
  -0.01889073  1.10336170  0.75776112
   0.46833906  0.60129532  0.28657948
   0.49474032  0.62677939  0.78951018
   0.47443572  1.09574262  0.26009551
   0.46031837  1.08405102  0.75845418
  -0.06093191  0.63184114  0.00534373
  -0.00829235  0.56744922  0.52224157
  -0.03044470  1.11635222  0.02267903
  -0.01173286  1.11753900  0.52027685
   0.45878874  0.59842079  0.02213901
   0.50332428  0.57223784  0.52837664
   0.49270070  1.11299089  0.03921092
   0.48179323  1.06927149  0.51129263
  -0.00952610  0.33811874 -0.24603245
  -0.01982151  0.36323052  0.22406527
  -0.01162431  0.82492794 -0.24704812
  -0.02735643  0.87490621  0.24857931
   0.46605132  0.34324396 -0.23930556
   0.44489565  0.38022267  0.23702193
   0.49595925  0.87655441 -0.21228650
   0.44920301  0.85890884  0.26485392
   0.23075106  0.58748813 -0.22089803
   0.19512545  0.59071400  0.27957062
   0.22683427  1.09662368 -0.23317937
   0.23188547  1.09568489  0.27695773
   0.72415175  0.59217814 -0.22057721
   0.71563994  0.56276126  0.26810830
   0.74670498  1.07606684 -0.24190197
   0.70803950  1.11344963  0.25398032
   0.21064057  0.83909158  0.01569191
   0.21748287  0.79915329  0.50971997
   0.21207853  1.33985819 -0.01014750
   0.23563919  1.34450972  0.50719331
   0.71755291  0.84632609  0.05772164
   0.72372035  0.84306696  0.51228726
   0.72197718  1.32646686  0.01954615
   0.74465913  1.34489402  0.48814351
