unknown system                          
           1
     8.054200    0.000000    0.000000
     0.000000    8.054200    0.000000
     0.000000    0.000000    8.054200
   Li   H 
    32    32
Direct configuration=  6220
  -0.14297203  0.88746941  0.00702251
  -0.09108409  0.91171277  0.47645846
  -0.12177140  1.41658183 -0.03466537
  -0.11352359  1.38518997  0.47844995
   0.35100982  0.89852334 -0.03882985
   0.39444191  0.91473311  0.46630196
   0.39353677  1.37525220 -0.02428841
   0.35832784  1.38552903  0.47737906
   0.36216225  0.65179088  0.22058227
   0.39411627  0.61441664  0.75231689
   0.36440708  1.13336235  0.23220350
   0.34718020  1.13113959  0.75224337
   0.86717225  0.63723823  0.25138282
   0.89044566  0.63172952  0.73315921
   0.88281369  1.14535751  0.20298834
   0.88307007  1.13538605  0.73672443
   0.11820585  0.38570375  0.24131683
   0.14200051  0.39384081  0.72693742
   0.13668308  0.88785333  0.24266912
   0.11034277  0.87192778  0.74301255
   0.62880470  0.37719969  0.20928988
   0.62477728  0.38243153  0.72868300
   0.63013068  0.90722375  0.24015906
   0.63160394  0.87883835  0.71169169
   0.13513909  0.64898908  0.48444828
   0.13836898  0.64160972  1.00514614
   0.13071207  1.13881678  0.51434929
   0.11086673  1.13881125  0.99258842
   0.61157074  0.64925769  0.46699617
   0.62409830  0.62972520  0.93891098
   0.63879127  1.14507090  0.48385811
   0.61342387  1.11497015  0.96838573
   0.14028435  0.62939815  0.26204245
   0.14065484  0.65023792  0.77092674
   0.13611507  1.14595002  0.22670935
   0.12106998  1.14160926  0.73342910
   0.64549968  0.64334303  0.23684998
   0.61683795  0.63577555  0.70944741
   0.63433630  1.14406507  0.22308657
   0.62000852  1.13404079  0.71438713
   0.11403027  0.39668292 -0.01509602
   0.12879055  0.40932157  0.47257444
   0.10871424  0.88573583 -0.01392126
   0.13204911  0.90281754  0.48399496
   0.61477562  0.39081448 -0.03803254
   0.62376483  0.38790945  0.48414720
   0.62169288  0.87560669 -0.01112118
   0.62998425  0.90021739  0.48705999
   0.35771469  0.63947795 -0.00842747
   0.38560987  0.64753870  0.49664477
   0.38297568  1.15486939 -0.02423146
   0.36237857  1.11877558  0.47610085
   0.86524385  0.64353586  0.00803714
   0.86724919  0.64399399  0.50095917
   0.87572367  1.13549136 -0.03008068
   0.91598293  1.14956950  0.51074973
   0.37243863  0.88926582  0.21474085
   0.38536263  0.90191755  0.73798771
   0.38703727  1.39365683  0.23854431
   0.38105877  1.36634702  0.73468861
   0.85352254  0.91437986  0.25511970
   0.88801535  0.90612528  0.72397432
   0.84773464  1.35366176  0.22648683
   0.88751798  1.38287808  0.74204202
