unknown system                          
           1
     8.054200    0.000000    0.000000
     0.000000    8.054200    0.000000
     0.000000    0.000000    8.054200
   Li   H 
    32    32
Direct configuration=  7420
  -0.17376281  0.75360697 -0.19422262
  -0.17780856  0.73802642  0.32869320
  -0.14677838  1.26460434 -0.15001215
  -0.16747210  1.22337992  0.31931362
   0.33443088  0.73972268 -0.20375691
   0.33891222  0.73498148  0.33481141
   0.34263557  1.23314526 -0.16047631
   0.35402943  1.23130072  0.31576191
   0.33292240  0.50367263  0.07468174
   0.36227876  0.48856478  0.56593059
   0.36216483  0.95763844  0.04018063
   0.35756702  0.99365511  0.54996861
   0.83506623  0.50249499  0.08900237
   0.85586118  0.47988967  0.57438835
   0.82411213  1.00777404  0.03785226
   0.85833335  1.00550080  0.57741642
   0.05565396  0.23730721  0.10436827
   0.09868526  0.24729294  0.55722175
   0.05657805  0.73011550  0.05045256
   0.07803220  0.74132629  0.55921462
   0.57417402  0.26725607  0.08505689
   0.57112079  0.25385030  0.58070188
   0.59448550  0.72238527  0.08391999
   0.59615750  0.75131537  0.55222063
   0.09682378  0.48896168  0.31620737
   0.09383527  0.49604787  0.83411959
   0.11090657  0.97929790  0.31850425
   0.09863873  1.00383834  0.81856175
   0.60355127  0.50716682  0.31043035
   0.62574838  0.49068877  0.82417847
   0.61573255  0.98151997  0.29388889
   0.57641969  0.99476749  0.80798052
   0.10533464  0.50052522  0.08169193
   0.10224382  0.49396572  0.56935609
   0.09054442  0.96677158  0.05268010
   0.10400063  0.99080473  0.57866586
   0.58894437  0.48865582  0.05629231
   0.60974800  0.51857402  0.58206045
   0.60050005  0.98444521  0.05975455
   0.58587606  1.00977688  0.53403324
   0.08251667  0.22396597 -0.19108212
   0.09146854  0.23316823  0.32194681
   0.08193114  0.76129530 -0.18428195
   0.06857288  0.73933441  0.31766459
   0.58544549  0.24146041 -0.14094780
   0.59942946  0.23906727  0.33026162
   0.55813868  0.76168006 -0.18226697
   0.57863572  0.72797697  0.32463963
   0.35897660  0.49049185 -0.19001176
   0.35403613  0.49363833  0.31623704
   0.35199685  0.99136701 -0.20520633
   0.34650565  1.00709805  0.31709827
   0.85498828  0.49407201 -0.15067455
   0.85346221  0.47879313  0.33655570
   0.83497188  0.99809329 -0.20212614
   0.89065119  0.96871294  0.27927605
   0.34644901  0.74686484  0.06094585
   0.35398791  0.73630718  0.56694851
   0.32150300  1.22940239  0.08488150
   0.32351786  1.23395412  0.56308426
   0.81149851  0.70812679  0.04120332
   0.83799376  0.76583578  0.57440049
   0.83503910  1.24325949  0.07707481
   0.82686800  1.23608290  0.54557901
