unknown system                          
           1
     8.054200    0.000000    0.000000
     0.000000    8.054200    0.000000
     0.000000    0.000000    8.054200
   Li   H 
    32    32
Direct configuration=  1420
  -0.10344825  0.84121071  0.08047450
  -0.12145548  0.80507037  0.60276417
  -0.12478788  1.28998463  0.09593915
  -0.11687534  1.31590099  0.59227321
   0.39971550  0.83696459  0.07350164
   0.41702244  0.82148013  0.58772809
   0.37584283  1.31434867  0.06675906
   0.40178606  1.34429301  0.58722242
   0.39419337  0.60322044  0.31211512
   0.39408623  0.55137165  0.83980759
   0.39733017  1.09109318  0.33574704
   0.40550167  1.08072551  0.82633742
   0.87770727  0.56025703  0.31663058
   0.89384643  0.55280963  0.85058816
   0.91218337  1.04937171  0.34224660
   0.89157177  1.04782139  0.82126229
   0.13436294  0.32144734  0.33915490
   0.13194472  0.30286782  0.82347791
   0.13127217  0.78933482  0.31570758
   0.14976651  0.84542825  0.84026323
   0.62430710  0.30864268  0.36087678
   0.64540147  0.33498755  0.83774170
   0.64349624  0.83109710  0.32548930
   0.64574037  0.81935332  0.84384178
   0.14409457  0.57904816  0.55951208
   0.12698221  0.54453807  1.07746435
   0.15657800  1.06516153  0.57761097
   0.12678185  1.05850117  1.08366611
   0.65372928  0.60408553  0.56579503
   0.64874153  0.54050525  1.06766434
   0.64695895  1.05761521  0.60589603
   0.62656304  1.07314581  1.07691701
   0.13153401  0.54462670  0.35108376
   0.13044602  0.55967087  0.86082631
   0.17569395  1.04884574  0.33014207
   0.16082847  1.05956323  0.84556079
   0.62055617  0.57060136  0.31742843
   0.64783593  0.55780129  0.83466844
   0.64694205  1.07047218  0.35105753
   0.64293269  1.05546897  0.83715237
   0.14153483  0.29986081  0.10883074
   0.14700399  0.30454684  0.58009398
   0.11673497  0.83174353  0.07183433
   0.12244399  0.83441314  0.59297034
   0.62011758  0.29868785  0.09343716
   0.65184178  0.29531136  0.60274707
   0.64390385  0.80725638  0.07640176
   0.65464412  0.82362816  0.60852949
   0.39530491  0.56083107  0.08428340
   0.40776172  0.61108540  0.57664370
   0.39095030  1.07974784  0.10146779
   0.37737922  1.03159252  0.57498838
   0.89716557  0.53548003  0.07501091
   0.90141212  0.55040803  0.61983409
   0.89203568  1.05258220  0.13120831
   0.89586037  1.05589195  0.58047223
   0.37263467  0.83706167  0.31788465
   0.41687939  0.83349043  0.82696521
   0.38915711  1.29613596  0.32534692
   0.39050916  1.30502083  0.81180281
   0.86688785  0.77782006  0.33673702
   0.88717182  0.81753802  0.84851306
   0.88779380  1.30997794  0.34461978
   0.90357403  1.31180939  0.83346352
