unknown system                          
           1
     8.054200    0.000000    0.000000
     0.000000    8.054200    0.000000
     0.000000    0.000000    8.054200
   Li   H 
    32    32
Direct configuration=  7020
  -0.20705871  0.74223226 -0.06800232
  -0.19612085  0.73637848  0.42334547
  -0.20263367  1.24072351 -0.07085876
  -0.19374358  1.25537630  0.43605814
   0.31180777  0.73950511 -0.06855753
   0.29860021  0.74884210  0.45463846
   0.32370509  1.25584303 -0.07823101
   0.31640979  1.22492928  0.43237717
   0.29704450  0.48159572  0.19403010
   0.33303702  0.46937506  0.65922727
   0.32580538  1.00433218  0.13306959
   0.31067146  0.99972007  0.67307156
   0.77993062  0.50001632  0.19413409
   0.81580918  0.50478746  0.70717164
   0.82374222  0.97210698  0.18846390
   0.81249978  1.00972946  0.68642706
   0.03108766  0.24928707  0.21365963
   0.06361938  0.23931100  0.70316610
   0.08309677  0.73605780  0.20110354
   0.05250076  0.75664955  0.69263494
   0.54965239  0.21256600  0.19738493
   0.56669183  0.25065639  0.70193940
   0.53473811  0.71374305  0.19319913
   0.56613896  0.73438063  0.66327699
   0.07350255  0.48500412  0.44928376
   0.05575484  0.49616153  0.93834442
   0.03313651  1.00899054  0.45500480
   0.07945622  0.96946078  0.95499333
   0.56185897  0.45158075  0.43074443
   0.55096289  0.47129813  0.95505690
   0.59331973  0.97523398  0.41726227
   0.56433049  0.97062741  0.92012752
   0.07246476  0.51024492  0.19996472
   0.07260984  0.49468376  0.69472286
   0.08359424  0.98211239  0.17632532
   0.06021135  1.00582924  0.70089622
   0.56034143  0.46098614  0.17782768
   0.57503265  0.50881694  0.66015511
   0.55729635  0.99874425  0.17116520
   0.57037391  1.00414747  0.68333171
   0.06997375  0.21949323 -0.05349342
   0.04395443  0.22592916  0.45629477
   0.03534839  0.74527550 -0.04575523
   0.07109985  0.73866077  0.44781316
   0.57093637  0.24316288 -0.05737223
   0.58308891  0.22471368  0.41231975
   0.54692428  0.72400699 -0.05586771
   0.53882983  0.72673418  0.42580273
   0.31694938  0.48686075 -0.06155196
   0.28893432  0.46604357  0.41480580
   0.31985733  1.02241604 -0.07646655
   0.29413361  0.97755267  0.42185970
   0.81212039  0.50751446 -0.05768247
   0.83841390  0.48448212  0.43628020
   0.80158356  0.98386737 -0.05262527
   0.82441412  0.99718660  0.44076509
   0.31176024  0.74073539  0.18762325
   0.32413135  0.75977669  0.67972671
   0.29443731  1.25440184  0.18733152
   0.33547510  1.23029106  0.67226399
   0.80823257  0.75021723  0.18694525
   0.80064120  0.73097395  0.67007767
   0.80578708  1.23616343  0.19131767
   0.83662043  1.25105194  0.69231795
