unknown system                          
           1
     8.054200    0.000000    0.000000
     0.000000    8.054200    0.000000
     0.000000    0.000000    8.054200
   Li   H 
    32    32
Direct configuration=  4220
  -0.17077625  0.80330097  0.08586315
  -0.15796155  0.80713070  0.57413420
  -0.16341219  1.28991456  0.09715241
  -0.16279447  1.28437815  0.56980425
   0.33853054  0.79334257  0.07347481
   0.31249088  0.79985733  0.58330409
   0.33171747  1.29485061  0.05288723
   0.31944485  1.31983514  0.58360405
   0.34343057  0.54829833  0.33185202
   0.34725469  0.54841735  0.83651299
   0.32827036  1.03372647  0.35136765
   0.34358162  1.04763668  0.86120247
   0.84170344  0.54208845  0.33992993
   0.84957956  0.56156642  0.81353105
   0.82440834  1.05613239  0.33755611
   0.87594852  1.06020646  0.85315665
   0.10538709  0.29460525  0.33002263
   0.09396592  0.29122484  0.82930495
   0.08907955  0.80250778  0.32243022
   0.11472890  0.81487014  0.84519453
   0.58863055  0.31930155  0.37168403
   0.60303876  0.31221535  0.83155412
   0.59070721  0.80602089  0.35862523
   0.60247266  0.79563347  0.82511811
   0.09322305  0.55519933  0.57594832
   0.06938345  0.56150676  1.08488788
   0.07938100  1.07055060  0.56645750
   0.08998965  1.06266443  1.07232471
   0.59758825  0.56961663  0.59848299
   0.61535803  0.51971878  1.10027828
   0.58364250  1.07005078  0.60054251
   0.61058052  1.03457845  1.11022097
   0.07246916  0.53872789  0.32740666
   0.08452449  0.57440776  0.82598322
   0.09573660  1.05235329  0.34494723
   0.08805015  1.06870355  0.83714325
   0.60268065  0.54956411  0.33199414
   0.56779603  0.54811759  0.83819154
   0.57033212  1.04200446  0.35945012
   0.61399992  1.04564513  0.85872901
   0.06845846  0.30141151  0.09288198
   0.08846251  0.30612303  0.58787156
   0.08810960  0.82125654  0.05930132
   0.09265183  0.81855051  0.59051999
   0.57334327  0.27896848  0.06786392
   0.59130543  0.29868491  0.60274014
   0.56634120  0.79743857  0.10092132
   0.59880787  0.80910343  0.57665584
   0.35333044  0.53359256  0.10831432
   0.34260541  0.57713542  0.63056172
   0.33582099  1.03660325  0.08859881
   0.35806266  1.02989781  0.58941692
   0.82128727  0.53839303  0.07245558
   0.83275627  0.57232384  0.54807186
   0.86088751  1.04402629  0.08118393
   0.81250403  1.05152306  0.55928485
   0.34678819  0.77753299  0.34115217
   0.32609794  0.77659640  0.85856624
   0.33335996  1.32573592  0.34379787
   0.37454579  1.29799564  0.83221786
   0.84009568  0.79791087  0.29665123
   0.83634807  0.80767755  0.83293851
   0.84164986  1.31114826  0.34986324
   0.86584066  1.30096360  0.81851775
