unknown system                          
           1
     8.054200    0.000000    0.000000
     0.000000    8.054200    0.000000
     0.000000    0.000000    8.054200
   Li   H 
    32    32
Direct configuration=  9620
  -0.21187275  0.87909524 -0.31174611
  -0.22391191  0.89867679  0.20735320
  -0.23445774  1.39516146 -0.30775783
  -0.22401507  1.38993358  0.19457087
   0.26230756  0.85947120 -0.31824638
   0.30790595  0.87680093  0.20147452
   0.25125941  1.36031212 -0.28743428
   0.29665505  1.38825868  0.19503298
   0.27939583  0.61218658 -0.04902310
   0.30381528  0.62872494  0.42875204
   0.27020979  1.14859226 -0.05048447
   0.27396361  1.11461842  0.44278170
   0.80317082  0.62933860 -0.07700730
   0.79532557  0.60865877  0.41486891
   0.79096244  1.12917550 -0.04147845
   0.74980423  1.16200214  0.49337601
   0.02626991  0.39568343 -0.03310634
   0.03239949  0.38598770  0.46963625
   0.04760456  0.90195679 -0.05634784
   0.02465992  0.86173828  0.43116875
   0.49978096  0.37659132 -0.05808555
   0.55074361  0.37708917  0.41845941
   0.56400985  0.85015736 -0.06810518
   0.50770961  0.88045946  0.45546450
   0.04109197  0.61919095  0.19483394
   0.04687253  0.65799596  0.69977995
   0.01159680  1.13268085  0.22477913
   0.01568792  1.14076537  0.70855237
   0.52536636  0.61123118  0.19741950
   0.52805770  0.62316766  0.69676544
   0.50638587  1.13426115  0.18286758
   0.51486182  1.11289493  0.70939387
   0.01605580  0.62921894 -0.05343348
   0.01374814  0.60902918  0.45787492
   0.01974281  1.12782594 -0.03146752
   0.03241854  1.12049859  0.46120583
   0.51964182  0.59840959 -0.03973280
   0.55257734  0.65506431  0.44286160
   0.53386399  1.14329922 -0.03546970
   0.53387996  1.10799871  0.44093173
   0.03265264  0.41730849 -0.30871501
   0.04138127  0.35394175  0.19279030
   0.03815667  0.87594588 -0.29980994
   0.04202604  0.88396531  0.21664872
   0.47436941  0.34645647 -0.31785304
   0.53092825  0.35499814  0.20798493
   0.51129446  0.88342666 -0.31677839
   0.53833823  0.89644401  0.20997610
   0.28349360  0.63042339 -0.29780192
   0.29050035  0.62320727  0.19067542
   0.24507553  1.11220033 -0.27492329
   0.28688588  1.10845856  0.19337935
   0.79909797  0.63822897 -0.31531608
   0.79650659  0.63118145  0.15510684
   0.76063455  1.14168677 -0.29088395
   0.78525654  1.14547337  0.21715315
   0.27916284  0.87631642 -0.06377656
   0.26532903  0.87782428  0.43084073
   0.26370315  1.34947069 -0.03890980
   0.25525401  1.39144810  0.43702541
   0.76695750  0.86628216 -0.05272315
   0.79068104  0.88071084  0.44794504
   0.78496558  1.40348744 -0.09007402
   0.75381983  1.39337868  0.46745970
