unknown system                          
           1
     8.054200    0.000000    0.000000
     0.000000    8.054200    0.000000
     0.000000    0.000000    8.054200
   Li   H 
    32    32
Direct configuration=  9820
  -0.20808145  0.73565440 -0.26676365
  -0.20101229  0.75524736  0.23967688
  -0.21679047  1.24536445 -0.29147455
  -0.19304697  1.24500420  0.23507556
   0.31324704  0.76797888 -0.26010073
   0.32442776  0.75537881  0.21682324
   0.27291353  1.23714956 -0.28506197
   0.28990641  1.24855586  0.20875421
   0.26975323  0.54033360 -0.03379924
   0.31473321  0.52405087  0.46781759
   0.28477332  1.01267560 -0.04555892
   0.30580564  1.00118725  0.46208515
   0.81972437  0.47994004 -0.02870805
   0.80556667  0.52914651  0.46940291
   0.78100731  0.99621700 -0.04255185
   0.77541103  0.99848277  0.49503259
   0.04074694  0.26818106 -0.04056376
   0.01293713  0.25204817  0.47833278
   0.03084316  0.77397039 -0.02386821
   0.02699547  0.75080243  0.47139405
   0.55262728  0.26296119 -0.04060471
   0.53544924  0.25746739  0.46791896
   0.53941057  0.74037287 -0.01243227
   0.55626085  0.74712690  0.45948128
   0.04054373  0.51029018  0.21661804
   0.05099181  0.52578137  0.71905346
   0.06359227  1.02359198  0.22299501
   0.06551645  1.02978438  0.70143251
   0.55296249  0.51070776  0.22912247
   0.53929816  0.50977426  0.73161383
   0.54148245  1.00560792  0.21848384
   0.55408796  0.99035962  0.71535889
   0.01532968  0.51248219 -0.04330724
   0.03325895  0.50902250  0.44233287
   0.03654002  1.01540151 -0.04093949
   0.02447832  1.01020939  0.47319353
   0.50954965  0.50654739 -0.00728969
   0.56192599  0.55037327  0.46946035
   0.51904898  1.00277662 -0.02120980
   0.53466555  1.00681804  0.45540598
   0.03616631  0.27283974 -0.25255767
   0.05258248  0.26597906  0.22102871
   0.05446036  0.77202561 -0.29370183
   0.05222803  0.75997925  0.21956723
   0.53967311  0.28002997 -0.29033666
   0.54034359  0.25902003  0.24481144
   0.56630717  0.78251578 -0.25250488
   0.56516903  0.73288369  0.20366594
   0.30131128  0.50150177 -0.26852665
   0.29111242  0.52212299  0.23658312
   0.28583706  0.99471442 -0.25251733
   0.30790773  1.01337643  0.17929129
   0.78248000  0.50394626 -0.28090498
   0.77708024  0.49067762  0.22990657
   0.77573960  1.01462436 -0.28760108
   0.78601719  1.02071134  0.22943182
   0.27159325  0.75537874 -0.02845736
   0.29053503  0.77867143  0.51557279
   0.28019853  1.24818882 -0.04333447
   0.27570491  1.24363974  0.45642225
   0.80716561  0.75501708 -0.02453083
   0.78560367  0.74700706  0.45615500
   0.79460156  1.24987939 -0.01747740
   0.76117896  1.26720031  0.47462152
