unknown system                          
           1
     8.054200    0.000000    0.000000
     0.000000    8.054200    0.000000
     0.000000    0.000000    8.054200
   Li   H 
    32    32
Direct configuration=    20
  -0.01018211  0.51632295 -0.01339170
  -0.00599652  0.51843135  0.50346787
  -0.00743265  1.00900540 -0.01948982
  -0.00918615  1.03910787  0.47459052
   0.47782781  0.49973560  0.00075899
   0.48098659  0.53672863  0.48962831
   0.48248262  1.02339744 -0.00458001
   0.49369791  1.03543913  0.48962871
   0.46721992  0.24100405  0.23470282
   0.50963001  0.27291869  0.75849168
   0.47953796  0.76893717  0.24049941
   0.51543796  0.76230491  0.73357512
   1.00810773  0.27104408  0.23428995
   0.97439708  0.23667350  0.72036154
   1.00563235  0.75733788  0.22370159
   0.99506446  0.76003690  0.74996339
   0.23775001 -0.02201146  0.24949317
   0.24424737 -0.01306498  0.75632282
   0.24604416  0.48294581  0.24671331
   0.25474730  0.49285698  0.76339656
   0.75254718 -0.01294222  0.24656019
   0.73425516 -0.01080443  0.75181684
   0.73740085  0.51045243  0.24769489
   0.75584664  0.49237967  0.75951355
   0.20336180  0.22358639  0.53976062
   0.20018651  0.21512754  1.01188375
   0.21463886  0.72581496  0.53119118
   0.22638542  0.71784541  0.98859504
   0.70903955  0.25554118  0.49623228
   0.75405259  0.22481008  1.02752108
   0.73402236  0.72056661  0.51927782
   0.69782418  0.71477343  1.02207632
   0.21831888  0.25202478  0.26113792
   0.25344574  0.24833035  0.75814152
   0.22998021  0.72640898  0.24823719
   0.26638380  0.73278827  0.76863048
   0.75607232  0.27715529  0.25331597
   0.73551322  0.24079096  0.74609014
   0.74808278  0.73758930  0.26519956
   0.73797751  0.73864609  0.76106551
   0.24636011 -0.02324588  0.02452378
   0.22096523 -0.00210900  0.51470123
   0.23512653  0.45761782  0.01696019
   0.23664538  0.48216807  0.50966143
   0.73037249 -0.01088562  0.00076167
   0.73573421  0.00740367  0.50522161
   0.72131736  0.49230398  0.01642226
   0.74100185  0.48879426  0.52862085
   0.49539971  0.24554225 -0.00618267
   0.43866091  0.28267965  0.49237059
   0.46337282  0.76214775 -0.01815180
   0.48253420  0.74912990  0.49311384
   0.96283186  0.26914259 -0.04881296
   0.99123935  0.25784620  0.50728280
   1.01163740  0.74020631 -0.00665435
   0.97794957  0.77242879  0.48085229
   0.48915743  0.53675420  0.24835507
   0.49625429  0.52172263  0.78403756
   0.49252130  0.99875703  0.24887113
   0.50552610  1.01234745  0.77417150
   1.01508377  0.52379984  0.25166621
   1.03329365  0.54270982  0.74470584
   0.98460142  1.01655728  0.24430227
   0.99907275  0.99778044  0.73030313
