unknown system                          
           1
     8.054200    0.000000    0.000000
     0.000000    8.054200    0.000000
     0.000000    0.000000    8.054200
   Li   H 
    32    32
Direct configuration=  2820
  -0.14979332  0.96438271  0.34561997
  -0.15404756  1.00409952  0.83337703
  -0.15759568  1.47673364  0.33214677
  -0.16367370  1.48692107  0.84085174
   0.34691116  0.99056260  0.32132683
   0.34566042  0.99138241  0.83379689
   0.34964798  1.47636207  0.35121945
   0.33997605  1.47335318  0.82600462
   0.31647347  0.71857683  0.60115748
   0.31113223  0.69340857  1.08775883
   0.33186336  1.22665557  0.57924491
   0.35088412  1.23523799  1.09993874
   0.84277766  0.72484374  0.57788250
   0.81694441  0.71536369  1.06685361
   0.85292300  1.21994972  0.57703162
   0.84125252  1.21172996  1.08799119
   0.07567464  0.46741239  0.60561560
   0.11926071  0.45079225  1.11460007
   0.08827799  0.98278933  0.57153515
   0.12074250  0.97995792  1.09175565
   0.59783958  0.47329071  0.60496281
   0.58382504  0.47420485  1.08432559
   0.57748735  0.97492235  0.57635157
   0.60279985  0.98299523  1.08745550
   0.09338512  0.69579588  0.84439640
   0.08473689  0.70899083  1.32891821
   0.08594315  1.23464218  0.84381894
   0.08303545  1.24337537  1.33024769
   0.60788496  0.73003156  0.86041817
   0.59294554  0.73429457  1.35403159
   0.57922168  1.21836082  0.82328285
   0.60712164  1.19927840  1.33291259
   0.08507203  0.72319600  0.58671636
   0.09317018  0.75271328  1.06835659
   0.09467574  1.22039097  0.57098125
   0.09543774  1.21326867  1.07382080
   0.57801335  0.74022995  0.61219189
   0.56091888  0.70109168  1.09842694
   0.57994485  1.20685325  0.56194655
   0.59766349  1.23892798  1.11596691
   0.07593214  0.48023563  0.32318791
   0.09807707  0.49449585  0.83319439
   0.09964575  0.98918216  0.32571111
   0.10497145  0.98654066  0.82723730
   0.59785746  0.48267875  0.33145348
   0.58892803  0.47244263  0.83027621
   0.60633704  0.97412505  0.34636299
   0.58918203  0.97002720  0.82509163
   0.32057328  0.72935315  0.32493663
   0.35123194  0.72217608  0.83352019
   0.34381837  1.24005301  0.33028782
   0.32316937  1.21647050  0.83246494
   0.85044417  0.71559847  0.33312740
   0.81725070  0.73791534  0.82154686
   0.84486310  1.24344598  0.32447219
   0.84155191  1.23968692  0.81744736
   0.33195958  0.99449371  0.58341006
   0.36583047  0.99175183  1.08003149
   0.31005801  1.46044066  0.57315880
   0.34118886  1.45237775  1.07810945
   0.82587449  0.98347337  0.57936959
   0.85021031  0.95933724  1.10769053
   0.84136245  1.46584288  0.58435025
   0.84586388  1.43884056  1.07241703
