unknown system                          
           1
     8.054200    0.000000    0.000000
     0.000000    8.054200    0.000000
     0.000000    0.000000    8.054200
   Li   H 
    32    32
Direct configuration=  5820
  -0.04947567  0.78198995 -0.03060863
  -0.05576491  0.79587098  0.44530612
  -0.05428426  1.28676187 -0.02541162
  -0.03365133  1.25251081  0.46890050
   0.43276025  0.80294748 -0.07078348
   0.47901426  0.77797058  0.47546274
   0.47772680  1.30022060 -0.02681014
   0.46149210  1.31220657  0.45358889
   0.46409073  0.55323386  0.24552689
   0.46113084  0.53627752  0.72039682
   0.46122685  1.02967704  0.20400037
   0.44646668  1.02866846  0.71198121
   0.96410892  0.54042621  0.22099379
   0.96410632  0.54915184  0.70266790
   0.93191231  1.03197154  0.22329256
   0.95680049  1.01707740  0.73729878
   0.19909509  0.28404086  0.22505257
   0.18926635  0.30200943  0.68563894
   0.19162715  0.79370222  0.19489028
   0.20774025  0.77178949  0.71486114
   0.72116380  0.31846867  0.22523866
   0.69619794  0.28132179  0.70393578
   0.67470595  0.79064701  0.19712423
   0.72226401  0.77384523  0.70948541
   0.22297237  0.57355710  0.46207257
   0.19431963  0.53790888  0.96183298
   0.21906935  1.02651459  0.47741841
   0.19158474  1.05845270  0.99251195
   0.73186340  0.54329182  0.46602719
   0.71127087  0.53883363  0.94293159
   0.69094395  1.03836683  0.45814830
   0.70773420  1.02809358  0.95147377
   0.19956354  0.54443227  0.21282214
   0.22152253  0.53700109  0.67675200
   0.19043598  1.02455684  0.22704052
   0.19418676  1.00367715  0.73312458
   0.73286144  0.53891417  0.20722013
   0.68875402  0.52339869  0.70263300
   0.72665638  1.04355537  0.19925571
   0.71033778  1.05781885  0.71127581
   0.16479015  0.27274451 -0.03047821
   0.19843482  0.28220556  0.45404489
   0.21124551  0.78764298 -0.03750353
   0.22532626  0.79713109  0.49344888
   0.70218350  0.28027753 -0.03769500
   0.68987698  0.27885585  0.45567686
   0.68285689  0.78805940 -0.04587809
   0.69991867  0.78602917  0.48240670
   0.48299246  0.54833620 -0.04589775
   0.44858689  0.56488254  0.46526009
   0.46058839  1.06784410 -0.04872360
   0.44618584  1.06013304  0.46944995
   0.92544597  0.54470408 -0.04670420
   0.97690673  0.53509636  0.44738379
   0.95841085  1.02235198 -0.01510154
   0.95898209  1.02950004  0.48293087
   0.45389635  0.80475987  0.23249793
   0.45083600  0.77115901  0.69998819
   0.43566000  1.29244586  0.23466822
   0.41195672  1.29199518  0.74362766
   0.92891874  0.77403223  0.24975093
   0.95552389  0.77463848  0.68605338
   0.95140934  1.28702070  0.18587803
   0.93718292  1.28959065  0.68245011
