unknown system                          
           1
     8.054200    0.000000    0.000000
     0.000000    8.054200    0.000000
     0.000000    0.000000    8.054200
   Li   H 
    32    32
Direct configuration=  7220
  -0.12599798  0.72282340 -0.15418320
  -0.12642271  0.71602666  0.33941034
  -0.13022896  1.23253668 -0.13374089
  -0.11711094  1.24073331  0.33473982
   0.37956832  0.72594790 -0.16544816
   0.35476271  0.72595595  0.35040375
   0.39613487  1.20444560 -0.14070026
   0.37371641  1.21113609  0.34064339
   0.35599983  0.48596124  0.10222417
   0.40245453  0.46456439  0.58834366
   0.37608919  0.98219382  0.10367591
   0.38852343  0.97769544  0.58910518
   0.86496824  0.46856534  0.11988053
   0.90500289  0.48390276  0.60497057
   0.87551781  0.97338581  0.08736694
   0.87615122  1.02085953  0.57519894
   0.09601979  0.21152006  0.12012175
   0.11763401  0.23395922  0.59017036
   0.11304590  0.71727326  0.10003910
   0.13692464  0.72927377  0.60958825
   0.62558078  0.23573158  0.09560995
   0.63567916  0.22582155  0.60112256
   0.60833566  0.71473957  0.10670512
   0.63258950  0.72582070  0.60694068
   0.11932511  0.46507319  0.33891976
   0.13295381  0.48617138  0.85241828
   0.11278409  0.96599358  0.35424124
   0.11747973  0.98149978  0.85024727
   0.61166377  0.48001754  0.34278570
   0.63703318  0.48499355  0.83705197
   0.64391232  0.95953596  0.35400451
   0.59970201  0.98276226  0.83833251
   0.09854447  0.46742137  0.08441142
   0.14417834  0.47807893  0.59281450
   0.11433944  0.97086525  0.08361774
   0.14579246  1.00682207  0.59151062
   0.61631652  0.47750371  0.09534739
   0.62463825  0.47512260  0.57530423
   0.63093537  0.99403655  0.10702720
   0.62625065  1.00721417  0.61502063
   0.12598480  0.24003907 -0.15347297
   0.11311569  0.23074657  0.33456892
   0.16330025  0.73668615 -0.15866213
   0.11918804  0.72361135  0.34610725
   0.61031487  0.24601835 -0.17082593
   0.60695424  0.24503632  0.38302835
   0.63205758  0.74268900 -0.12377407
   0.62067776  0.74026985  0.36055552
   0.41600680  0.45827179 -0.15401064
   0.37585242  0.48972555  0.34839158
   0.36873783  0.96852488 -0.15286888
   0.40294899  0.96379227  0.34988396
   0.89486667  0.49982872 -0.12295879
   0.86075164  0.46804163  0.35201454
   0.86759862  0.97086214 -0.17208054
   0.88613181  0.95346085  0.33151688
   0.36922065  0.71595424  0.09580998
   0.39172527  0.73122772  0.58508788
   0.34835958  1.22111244  0.09442557
   0.39602820  1.21494784  0.58478011
   0.89444198  0.72258218  0.09562939
   0.88924553  0.73569290  0.58441311
   0.87987877  1.21661546  0.09438344
   0.87061905  1.26131487  0.61433794
