unknown system                          
           1
     8.054200    0.000000    0.000000
     0.000000    8.054200    0.000000
     0.000000    0.000000    8.054200
   Li   H 
    32    32
Direct configuration=  3420
   0.03053642  0.85483861  0.26496092
   0.01998040  0.83679830  0.79714720
   0.05413184  1.38715500  0.26624517
   0.02915729  1.33458221  0.81809720
   0.55117515  0.87497694  0.29794778
   0.55986967  0.89995610  0.78357194
   0.55831676  1.35992603  0.28722209
   0.53262282  1.38080938  0.79517462
   0.53315909  0.62374087  0.53907219
   0.53362009  0.63353959  1.00717388
   0.54510238  1.09460336  0.54717604
   0.52269689  1.11482535  1.05254678
   1.03434269  0.60604562  0.54690444
   1.01660192  0.62634066  1.01594171
   1.05513233  1.08861673  0.53864067
   1.04068026  1.11221053  1.02674431
   0.29823378  0.34594882  0.50765057
   0.28236207  0.36435152  1.04982193
   0.27824358  0.83812110  0.55181570
   0.28843509  0.82300762  1.01279609
   0.78695938  0.37837720  0.53185741
   0.78158933  0.37453186  1.02628964
   0.80072677  0.87198914  0.51671257
   0.78837564  0.87872066  1.03898246
   0.24923695  0.58590372  0.80210768
   0.31660749  0.60944926  1.27713859
   0.28434224  1.12525517  0.79727576
   0.30737428  1.09836516  1.26662395
   0.79239460  0.63310753  0.77227949
   0.81094982  0.59718649  1.26534499
   0.77465912  1.14357451  0.79588097
   0.81681121  1.12337399  1.29113784
   0.27483248  0.56313465  0.58477064
   0.27013533  0.58549242  1.03591040
   0.29756677  1.10411109  0.54557702
   0.27039469  1.10848323  1.03609037
   0.79709718  0.62820923  0.51174410
   0.79710723  0.61865173  1.02781733
   0.77412204  1.09645290  0.54967236
   0.78351521  1.12742079  1.06974483
   0.32979101  0.35945057  0.27509878
   0.28290719  0.35983607  0.82160011
   0.27667182  0.86618230  0.25677369
   0.27857284  0.82004970  0.78263740
   0.79989135  0.36646935  0.29637531
   0.78809047  0.37686431  0.79021924
   0.80218191  0.87550532  0.27129261
   0.78778090  0.88441293  0.77392734
   0.54032695  0.64442275  0.29480325
   0.57687855  0.62175608  0.80226139
   0.54071769  1.13224491  0.31799743
   0.53661214  1.13526344  0.78580914
   1.03268145  0.61925317  0.26733764
   1.03475196  0.58265493  0.77201007
   1.05626437  1.13412243  0.27870288
   1.03701703  1.09440732  0.78512606
   0.54846967  0.84545133  0.52588241
   0.55869150  0.88630704  1.02438286
   0.54904946  1.36714292  0.50081205
   0.55672153  1.36880516  1.02475631
   1.04750919  0.84714823  0.52178000
   1.04391377  0.85207844  1.02526781
   1.05314473  1.33419834  0.50124936
   1.05193566  1.35706616  1.03246656
