unknown system                          
           1
     8.054200    0.000000    0.000000
     0.000000    8.054200    0.000000
     0.000000    0.000000    8.054200
   Li   H 
    32    32
Direct configuration=  5420
  -0.08769853  0.78401848  0.00329086
  -0.06083670  0.76783129  0.50648669
  -0.06189333  1.30083830  0.02126387
  -0.05703520  1.27492313  0.49738846
   0.41839481  0.79797659 -0.00255715
   0.44490822  0.78926588  0.48031929
   0.43650189  1.28999122 -0.02104741
   0.44199004  1.30963379  0.45468505
   0.39813064  0.54263139  0.23814798
   0.42219248  0.55822692  0.72969439
   0.39966371  1.05552704  0.23118317
   0.43689224  1.02405244  0.74775155
   0.87669059  0.53782182  0.26086016
   0.95478769  0.51927423  0.75344154
   0.91681752  1.02966828  0.27010784
   0.93207009  1.03061151  0.73217424
   0.16967648  0.31728371  0.22708301
   0.18397378  0.27442952  0.70977941
   0.15892651  0.81657021  0.23739604
   0.17644791  0.80234066  0.73609812
   0.65689124  0.28868326  0.22260759
   0.69700965  0.28708773  0.73910540
   0.66463717  0.79921891  0.26000820
   0.69446188  0.78047040  0.75939564
   0.15144957  0.54081842  0.47131631
   0.18707117  0.52968320  1.00800096
   0.22560246  1.03554823  0.51502347
   0.15561431  1.04890758  0.98619216
   0.68137485  0.53801603  0.49764385
   0.66352394  0.52564918  0.99346361
   0.69119713  1.04736674  0.51025665
   0.66254982  1.04322442  0.98791876
   0.13958626  0.53156250  0.23423786
   0.17527342  0.54014407  0.73733449
   0.16433064  1.05605253  0.24797504
   0.19584770  1.00998666  0.73806041
   0.65116792  0.54813093  0.25216837
   0.68352245  0.53131854  0.75788985
   0.67540386  1.01867316  0.21889898
   0.67104507  1.06693403  0.73113278
   0.16594572  0.29019543 -0.03236578
   0.18754803  0.26512125  0.47893959
   0.17795987  0.80882229 -0.02279736
   0.17863679  0.78661557  0.49114556
   0.68752476  0.26721154 -0.01181728
   0.68947448  0.30289722  0.48482750
   0.69364930  0.76825707  0.00552860
   0.67409959  0.79444549  0.51772538
   0.42304885  0.56614244 -0.02503745
   0.42017141  0.56080800  0.49107593
   0.41694048  1.04118093 -0.02457945
   0.43605000  1.01925467  0.47406051
   0.92196529  0.53681880  0.00571008
   0.92589518  0.53258494  0.48400915
   0.93933280  1.02790447 -0.03012501
   0.93191789  1.01103683  0.50470870
   0.41453151  0.81454831  0.25853693
   0.43153677  0.77014301  0.77106019
   0.42325106  1.32846934  0.20810442
   0.40830644  1.28243172  0.75805588
   0.95065684  0.76832238  0.25169402
   0.92464924  0.75827593  0.73443716
   0.91104643  1.29134641  0.23603015
   0.95206203  1.26692548  0.72127546
