unknown system                          
           1
     8.054200    0.000000    0.000000
     0.000000    8.054200    0.000000
     0.000000    0.000000    8.054200
   Li   H 
    32    32
Direct configuration=  6820
  -0.22247269  0.78379299 -0.07309559
  -0.23581859  0.78180768  0.42084466
  -0.20680039  1.29638749 -0.07578495
  -0.23283884  1.28562128  0.42769052
   0.24866184  0.80367847 -0.08545562
   0.23661477  0.78496253  0.41712844
   0.28375000  1.30403025 -0.08389636
   0.27186772  1.27598866  0.43981126
   0.27527223  0.52386116  0.17900449
   0.26827112  0.54778247  0.66101217
   0.26479177  1.05399391  0.16634863
   0.28419410  1.04234598  0.67296342
   0.76839586  0.55419707  0.17956325
   0.75563211  0.54628925  0.69917142
   0.78046118  1.03057382  0.16887972
   0.77611924  1.02079199  0.66606854
   0.01797434  0.26891214  0.20866518
   0.00851017  0.29969817  0.68879296
   0.00304121  0.79390921  0.16258004
   0.03642932  0.81802738  0.66677120
   0.51710870  0.28762631  0.20105962
   0.53307419  0.28682655  0.68190022
   0.49694389  0.78909409  0.16782930
   0.53810408  0.76366586  0.66924169
   0.00506537  0.53593751  0.43943289
   0.02157427  0.55395750  0.94406414
   0.01725490  1.03688701  0.43697112
   0.03388556  1.06154708  0.91837354
   0.51757489  0.50824851  0.43301016
   0.48411388  0.53776546  0.94366458
   0.54369934  1.02934757  0.42443358
   0.53586427  1.05235054  0.92211887
   0.01908128  0.51741000  0.18212629
   0.03115436  0.57864725  0.69356633
   0.04124930  1.04240041  0.17474983
   0.03909709  1.06871942  0.69715708
   0.53797058  0.52852255  0.17890435
   0.49744036  0.50997987  0.67067129
   0.50737139  1.04327920  0.18609697
   0.52619161  1.02110105  0.68563041
   0.03129125  0.30217265 -0.05104003
   0.02199555  0.28004647  0.44310253
   0.00836235  0.80091867 -0.05932007
   0.00329191  0.80603255  0.43142754
   0.50082049  0.28783465 -0.08388515
   0.53385358  0.27522250  0.45514832
   0.48565239  0.82173864 -0.07715319
   0.53277597  0.79749266  0.40714205
   0.24297496  0.53592373 -0.06739332
   0.28291714  0.50763073  0.43064873
   0.29622394  1.08330965 -0.07721133
   0.27606861  1.01672910  0.44565084
   0.78838674  0.55443199 -0.05139880
   0.74597418  0.52081540  0.43600526
   0.78047502  1.02942465 -0.05907757
   0.77994118  1.03025252  0.40773580
   0.26615574  0.81497519  0.16867400
   0.29307956  0.78273392  0.66094029
   0.28310779  1.29037231  0.17423134
   0.28999734  1.30614069  0.68726133
   0.77368812  0.77864227  0.19385634
   0.77023368  0.80340876  0.67361590
   0.77405522  1.27158756  0.19057884
   0.75487700  1.29467523  0.65543731
