unknown system                          
           1
     8.054200    0.000000    0.000000
     0.000000    8.054200    0.000000
     0.000000    0.000000    8.054200
   Li   H 
    32    32
Direct configuration=  4020
  -0.08468791  0.81912227  0.09243779
  -0.09840076  0.78725796  0.60123809
  -0.09809407  1.27256670  0.08804368
  -0.11967970  1.32777381  0.60519836
   0.37359776  0.81419296  0.11892432
   0.40398830  0.82271315  0.58926644
   0.39118751  1.29398897  0.11034703
   0.41077192  1.29416597  0.59037200
   0.39719501  0.57937418  0.35018005
   0.42006001  0.55616766  0.85383579
   0.37638383  1.05838855  0.34809791
   0.42097626  1.05509590  0.84557238
   0.86937263  0.52693896  0.32468715
   0.88920417  0.55838958  0.87849419
   0.88401562  1.04891166  0.35991976
   0.91015592  1.04550675  0.83876194
   0.14067855  0.30298201  0.35473004
   0.14971737  0.28457256  0.86282476
   0.13622196  0.80136439  0.36174902
   0.13519303  0.80249552  0.84237388
   0.62827759  0.29862104  0.34411829
   0.65790732  0.28522874  0.83927698
   0.66775343  0.80310883  0.32511925
   0.66138841  0.80278564  0.85770247
   0.16714619  0.55722842  0.60729811
   0.13301141  0.52173539  1.10588234
   0.15072820  1.05875545  0.59624089
   0.17248828  1.03952551  1.08568916
   0.63635703  0.56310162  0.60224443
   0.61765800  0.54056985  1.10059876
   0.65064795  1.05120459  0.59915324
   0.66722562  1.04372363  1.11175754
   0.16234006  0.58259698  0.35035144
   0.16505409  0.55673503  0.86637211
   0.12899500  1.08646610  0.35726541
   0.13073885  1.05602823  0.85758285
   0.64265115  0.56824675  0.34410628
   0.65334276  0.54445839  0.84102847
   0.65002320  1.05559171  0.35309325
   0.67336346  1.04698790  0.83386987
   0.12833263  0.29868550  0.11862395
   0.15920806  0.36064106  0.63190029
   0.14713014  0.79609271  0.11662795
   0.13998316  0.78789336  0.61385839
   0.67801671  0.31492568  0.10762714
   0.64263269  0.29909916  0.61143840
   0.63006542  0.80332918  0.07865571
   0.62706477  0.79679294  0.57564351
   0.39241555  0.53843975  0.12070892
   0.39837968  0.55871548  0.60535709
   0.41232243  1.06769220  0.08271322
   0.38695742  1.07181691  0.58405911
   0.87215171  0.55724282  0.11161658
   0.90575488  0.55161772  0.55719527
   0.92326752  1.06481227  0.08507224
   0.88807640  1.02961775  0.59867041
   0.37861772  0.82989874  0.36044359
   0.38002870  0.78624601  0.83375958
   0.39851410  1.28591986  0.35317082
   0.42621101  1.29271029  0.85537465
   0.91047665  0.83002106  0.31817836
   0.88964361  0.79584939  0.83633549
   0.89999663  1.28346209  0.35510356
   0.89093411  1.29378089  0.84877661
