unknown system                          
           1
     8.054200    0.000000    0.000000
     0.000000    8.054200    0.000000
     0.000000    0.000000    8.054200
   Li   H 
    32    32
Direct configuration=  8820
  -0.24197217  0.78992620 -0.24200821
  -0.17908876  0.80514470  0.23595616
  -0.21912416  1.27505776 -0.23997114
  -0.19253328  1.28444366  0.22630563
   0.26524684  0.76608011 -0.26898740
   0.29488347  0.74952774  0.23775727
   0.27752572  1.27386679 -0.24853681
   0.30311929  1.26909850  0.26329006
   0.31375183  0.51439508 -0.01259261
   0.30198682  0.53130520  0.51067423
   0.29517110  1.01667451  0.00021405
   0.26307622  1.01842680  0.50200225
   0.78809498  0.54214918 -0.01845392
   0.80501537  0.55353661  0.49456531
   0.80882521  1.05315100  0.00625310
   0.78411210  1.04557678  0.48290317
   0.04466669  0.28837100  0.00153983
   0.02110854  0.28555281  0.48331718
   0.07520684  0.78067786 -0.02484894
   0.03795374  0.79212707  0.52636844
   0.57091311  0.27599134 -0.02506599
   0.54653472  0.27889205  0.50485592
   0.55576490  0.78856733 -0.00877824
   0.56417102  0.80240453  0.49750476
   0.04619631  0.54591864  0.25421557
   0.04834403  0.52476895  0.72116597
   0.05574231  1.01916718  0.25994149
   0.02380064  1.02057464  0.75528698
   0.54913708  0.54234070  0.25476508
   0.53437750  0.51956427  0.74947055
   0.53411985  1.04438710  0.23793983
   0.50710670  1.02471013  0.74334999
   0.03659865  0.51807063 -0.03379832
   0.06175946  0.53805180  0.49641774
   0.04750451  1.01836275 -0.02261298
   0.04246900  1.03656552  0.49710595
   0.56095359  0.54162293  0.00911055
   0.56605471  0.53186502  0.53356506
   0.58076796  1.03809586 -0.02173737
   0.51184208  1.03570683  0.49556124
   0.02948498  0.27167337 -0.26286377
   0.03871559  0.29216389  0.23220128
   0.02741822  0.76034489 -0.23794963
   0.05602506  0.79747167  0.26335896
   0.53696102  0.28363471 -0.22828453
   0.54926682  0.28108984  0.23758046
   0.52103051  0.79123102 -0.25359308
   0.53312262  0.78771149  0.27866133
   0.28501418  0.53101491 -0.26572886
   0.31140184  0.51473016  0.26222597
   0.27716074  1.01614792 -0.24574897
   0.29285358  1.01382606  0.25454188
   0.75063910  0.54638458 -0.25166928
   0.80222147  0.54702452  0.23596900
   0.76514238  1.02868633 -0.25896351
   0.80425213  1.05924559  0.26777892
   0.30522882  0.77049960 -0.00635557
   0.28610792  0.78706179  0.50403745
   0.31163143  1.25751028 -0.00040533
   0.27055270  1.30322591  0.52046432
   0.81847465  0.81158817 -0.01183822
   0.80297625  0.78533093  0.52839216
   0.80664800  1.28740544 -0.02370932
   0.78778949  1.28743026  0.50501725
