unknown system                          
           1
     8.054200    0.000000    0.000000
     0.000000    8.054200    0.000000
     0.000000    0.000000    8.054200
   Li   H 
    32    32
Direct configuration=  1020
  -0.21930150  0.85152364  0.09622436
  -0.19269966  0.88963720  0.61120750
  -0.20422096  1.35937458  0.11530784
  -0.20406006  1.37735731  0.60926898
   0.27786378  0.89161975  0.12742854
   0.26873747  0.87210673  0.62550937
   0.25289177  1.38099006  0.12846240
   0.27616448  1.38831457  0.62259364
   0.28337846  0.61924102  0.36621477
   0.25374219  0.63657972  0.87325637
   0.26183705  1.13834221  0.37897766
   0.24375076  1.17022685  0.85782777
   0.75510859  0.61099263  0.36656789
   0.79145440  0.60934646  0.85836596
   0.74721646  1.09012712  0.36309090
   0.76957503  1.14809905  0.84027645
   0.02591099  0.38276268  0.36736717
   0.01569785  0.37731637  0.83011182
   0.00268865  0.85735856  0.33836435
   0.00715332  0.84612162  0.85922716
   0.52590523  0.36333173  0.36666153
   0.53050187  0.37845515  0.85861220
   0.50695089  0.87116036  0.38590102
   0.53236013  0.88561255  0.84996803
   0.03239717  0.61682043  0.59313827
   0.02234127  0.63953840  1.11694850
  -0.00153535  1.14256940  0.57584742
   0.03227922  1.12492800  1.12599574
   0.53397696  0.61539950  0.61384973
   0.49921612  0.62010372  1.09989937
   0.47126553  1.12395046  0.61235531
   0.52364022  1.12133818  1.10379225
   0.00806645  0.62904030  0.37791418
   0.03054212  0.64136742  0.88827078
   0.00362074  1.14380816  0.33364726
   0.02043231  1.14139376  0.84742878
   0.54365742  0.61707377  0.35264107
   0.51111286  0.61291155  0.86232235
   0.53458306  1.12220006  0.35746801
   0.48028150  1.15383440  0.85852048
   0.03213518  0.37511308  0.11156184
  -0.00353944  0.37750120  0.59069100
   0.00706668  0.87997117  0.12140697
   0.03163387  0.91396981  0.62076214
   0.50395352  0.39809736  0.13941046
   0.52139863  0.37864804  0.61361064
   0.53325561  0.85613836  0.13868270
   0.52643617  0.87061334  0.61617188
   0.25554361  0.63206425  0.12185754
   0.25126977  0.62831645  0.63270471
   0.27995069  1.15744782  0.12176642
   0.25602283  1.14985035  0.60517366
   0.78616445  0.61954766  0.12093152
   0.78175263  0.62246502  0.60038681
   0.77795307  1.12804583  0.09193658
   0.72099973  1.12837562  0.61234673
   0.24592790  0.84478183  0.39089059
   0.26633856  0.88959721  0.88797610
   0.26234594  1.39887561  0.37088574
   0.24780624  1.39387771  0.84589672
   0.77427212  0.86868410  0.38656301
   0.77457521  0.84595601  0.84518776
   0.77993036  1.36766546  0.37317207
   0.77645771  1.38701508  0.86341018
