unknown system                          
           1
     8.054200    0.000000    0.000000
     0.000000    8.054200    0.000000
     0.000000    0.000000    8.054200
   Li   H 
    32    32
Direct configuration=  5620
  -0.02121227  0.80091410 -0.02566233
  -0.03029823  0.76764064  0.47627171
  -0.02323206  1.29665540 -0.02056038
  -0.00665335  1.29217863  0.50276070
   0.44928478  0.76961874 -0.03890758
   0.50192105  0.76492343  0.49427897
   0.47403718  1.29989017 -0.02101067
   0.48894547  1.31921514  0.47826569
   0.46465589  0.54600203  0.22037156
   0.48680329  0.51400975  0.73679854
   0.46665197  1.07619176  0.23960073
   0.48908227  1.06337326  0.71545932
   0.98173422  0.54850869  0.21363828
   0.99853823  0.54775131  0.73212486
   0.95480382  1.04338648  0.24147863
   0.98949752  1.03924444  0.72854561
   0.23537963  0.30132528  0.20867633
   0.21789599  0.28865196  0.73712924
   0.22705771  0.79651152  0.22278409
   0.21685728  0.78893528  0.71647457
   0.73368205  0.30239831  0.21900322
   0.71486495  0.27378023  0.72341803
   0.69386991  0.79605577  0.21952123
   0.71799531  0.77958371  0.75389147
   0.21852473  0.54934033  0.46195858
   0.21817776  0.56673908  0.97352973
   0.23022400  1.06458059  0.45584020
   0.22242374  1.07465548  0.99073498
   0.73305566  0.53491586  0.46031872
   0.71160293  0.54535039  0.98592980
   0.75453065  1.03851735  0.46010783
   0.72369577  1.04194937  1.00462272
   0.23201624  0.50739735  0.22194906
   0.23772272  0.56300269  0.71804631
   0.23561745  1.05482924  0.20598793
   0.21549695  1.08337171  0.70430445
   0.69835189  0.56683601  0.22216155
   0.69800028  0.56146946  0.74291977
   0.73101628  1.05501523  0.22785644
   0.75005417  1.07034232  0.67566853
   0.23903684  0.30029837 -0.03917319
   0.23447883  0.32580916  0.47877801
   0.20489748  0.79553658 -0.02872161
   0.24064391  0.78726240  0.49973283
   0.73597160  0.30485063 -0.04021850
   0.73031671  0.33154465  0.46305060
   0.69186803  0.76681351 -0.01020248
   0.72697044  0.79209221  0.50955517
   0.46429125  0.54252117 -0.02668342
   0.46648573  0.55009159  0.47160437
   0.47081941  1.07768779 -0.05128324
   0.47375704  1.02638521  0.46605296
   0.96193663  0.57203814 -0.00750917
   0.96617534  0.54007409  0.46214453
   0.96800903  1.06006930 -0.01612093
   0.97442391  1.01776069  0.47734216
   0.46912713  0.80120602  0.24391674
   0.47703552  0.80063188  0.71036985
   0.46521734  1.31170466  0.24640397
   0.48556427  1.28228597  0.74089515
   0.97713958  0.79963245  0.23442744
   0.97939883  0.78868529  0.71517839
   0.98972083  1.29689957  0.23812613
   0.96329283  1.28606009  0.73411766
