unknown system                          
           1
     8.054200    0.000000    0.000000
     0.000000    8.054200    0.000000
     0.000000    0.000000    8.054200
   Li   H 
    32    32
Direct configuration=  1220
  -0.21921322  0.85935745  0.05066371
  -0.21665485  0.87759410  0.52945929
  -0.25783879  1.38386423  0.04918719
  -0.27268758  1.37097188  0.53878580
   0.27493155  0.87720175  0.04723751
   0.25576169  0.87909623  0.53583722
   0.27360769  1.34307620  0.05381744
   0.27156230  1.38151334  0.53913696
   0.26232405  0.63154167  0.31737981
   0.26671326  0.60821668  0.82384581
   0.26034206  1.09073245  0.29932801
   0.28440483  1.10667776  0.79314919
   0.76988122  0.58022949  0.29771828
   0.73248226  0.61302991  0.81910115
   0.77148159  1.10476533  0.29068383
   0.77022358  1.10848340  0.78390031
   0.01123349  0.36746874  0.30673600
   0.02048856  0.34499854  0.79537520
   0.00544420  0.86043530  0.28220027
   0.02206397  0.85582087  0.80263237
   0.50161015  0.34363857  0.30589821
   0.49663198  0.38959861  0.81670942
   0.51920034  0.86657582  0.29492965
   0.52148005  0.87184911  0.80370603
   0.01044825  0.58546655  0.56566236
  -0.01212103  0.59706099  1.03006200
   0.01463148  1.12709315  0.53989005
  -0.00528002  1.13133263  1.01103970
   0.49519635  0.61794437  0.53751692
   0.48938736  0.60182576  1.06894687
   0.51634306  1.10225741  0.55579124
   0.53870513  1.10948681  1.06178034
   0.01729648  0.58900826  0.30039716
  -0.01388233  0.58362531  0.81334739
   0.02932160  1.10401089  0.29957444
  -0.00478856  1.08800214  0.80327074
   0.50346244  0.60158753  0.31661159
   0.48980336  0.62945151  0.83245042
   0.51913990  1.08435002  0.31190379
   0.52587708  1.10764649  0.79658450
   0.01140035  0.37263292  0.07699731
   0.00314233  0.36198930  0.55508265
   0.02642010  0.85070263  0.03542170
   0.01699313  0.82493685  0.53532912
   0.52483579  0.33916786  0.07416827
   0.51802124  0.38027986  0.53700155
   0.51055826  0.87740702  0.02621735
   0.50647582  0.88548667  0.53786342
   0.23832221  0.62543744  0.02491723
   0.25566391  0.62626787  0.55725355
   0.22411489  1.11614994  0.07289725
   0.26426904  1.12678027  0.54142452
   0.76304613  0.60242740  0.07121704
   0.75462976  0.62736069  0.57398618
   0.76538768  1.07908113  0.04750648
   0.74410557  1.09095613  0.55117957
   0.28152222  0.84835606  0.28281669
   0.27816684  0.86096723  0.80082592
   0.28954235  1.35934140  0.30503422
   0.26863098  1.36705698  0.81411068
   0.75138915  0.87207964  0.30638727
   0.74949061  0.87169466  0.77450052
   0.76227418  1.34657998  0.27800634
   0.72916936  1.38813047  0.81613360
