unknown system                          
           1
     8.054200    0.000000    0.000000
     0.000000    8.054200    0.000000
     0.000000    0.000000    8.054200
   Li   H 
    32    32
Direct configuration=   220
  -0.09608284  0.54614625 -0.02884039
  -0.08776485  0.59085929  0.47934751
  -0.05312402  1.05108322 -0.01983419
  -0.09628640  1.09404823  0.45618527
   0.40385996  0.58016935 -0.05437877
   0.39884349  0.57156571  0.48069629
   0.44590054  1.05752491 -0.04090164
   0.41058340  1.09643057  0.47563317
   0.38391628  0.31031253  0.21750139
   0.44414634  0.30100398  0.74446802
   0.40257021  0.80767507  0.21761328
   0.43563656  0.81628183  0.72428111
   0.94262971  0.31162707  0.20312280
   0.92362765  0.33003324  0.72974557
   0.92400314  0.81931746  0.24166421
   0.94783443  0.81870102  0.71638029
   0.17121597  0.06128496  0.22650795
   0.17139943  0.06225810  0.74935362
   0.17022998  0.56775895  0.24646471
   0.19316593  0.57793085  0.72460148
   0.66761750  0.07451420  0.22601861
   0.67793969  0.05676725  0.73541995
   0.66600269  0.58744610  0.24629879
   0.67956105  0.58444431  0.72892717
   0.15141614  0.30008689  0.50167835
   0.18312945  0.33491880  0.96795452
   0.14677858  0.81356506  0.47646945
   0.17131789  0.81370434  0.98790998
   0.64502826  0.32640840  0.50136403
   0.68413764  0.31475495  0.99301688
   0.65252392  0.85179779  0.48345564
   0.66171054  0.77838038  0.97882131
   0.14768434  0.28751395  0.23112066
   0.18476535  0.33503310  0.72349871
   0.17254617  0.82513791  0.23120596
   0.19929186  0.80159947  0.75831322
   0.66083438  0.30822602  0.23975452
   0.67908398  0.31181534  0.74957931
   0.65642475  0.84721295  0.23700227
   0.68384247  0.81945395  0.72572091
   0.18870761  0.03280977 -0.04189250
   0.14209439  0.07786684  0.49559717
   0.18681762  0.57137069 -0.00288351
   0.15001591  0.56509004  0.48937090
   0.70018976  0.06660242 -0.00713326
   0.67611520  0.08447605  0.46955298
   0.66875847  0.56245188 -0.02323240
   0.68860280  0.58564547  0.46952421
   0.42709358  0.30448627 -0.01346856
   0.37761865  0.33757216  0.49346425
   0.42148612  0.81265929 -0.02785590
   0.40448468  0.81647584  0.49556032
   0.95962245  0.32931142 -0.04002714
   0.88816910  0.33440822  0.47482806
   0.91305876  0.79554884 -0.02269057
   0.90180166  0.84254428  0.48230590
   0.41136373  0.53864977  0.22617245
   0.43021738  0.56501387  0.70841993
   0.38753592  1.06665014  0.21928034
   0.44846638  1.07381322  0.73306203
   0.91194666  0.58564900  0.22274110
   0.96813017  0.59640620  0.71648390
   0.92455092  1.06702173  0.22922104
   0.92148543  1.08801751  0.74635090
