unknown system                          
           1
     8.054200    0.000000    0.000000
     0.000000    8.054200    0.000000
     0.000000    0.000000    8.054200
   Li   H 
    32    32
Direct configuration=  3020
  -0.08618000  0.99561357  0.38561140
  -0.08861171  1.00616664  0.87001314
  -0.06514421  1.45629299  0.36287452
  -0.06894071  1.49955524  0.85111819
   0.43189861  0.98385718  0.35358821
   0.43474449  0.97704903  0.86217999
   0.41502479  1.48290416  0.37188992
   0.43136086  1.47241316  0.87929073
   0.40121642  0.70510953  0.63777462
   0.40766296  0.69185659  1.14510023
   0.41683179  1.24084811  0.63002855
   0.41660309  1.24302507  1.14195905
   0.91085701  0.73971617  0.63415695
   0.88362754  0.71972193  1.09797473
   0.93210041  1.24120995  0.61701753
   0.90207565  1.20545558  1.11410092
   0.16229127  0.48239521  0.62683632
   0.18005061  0.50302871  1.10677038
   0.17106443  0.97597058  0.63368522
   0.18842128  0.96959813  1.12409028
   0.66359827  0.49216787  0.60554870
   0.68478306  0.48818857  1.12036252
   0.65297763  0.99606638  0.63387407
   0.65847237  0.95465312  1.11838345
   0.16081301  0.75420401  0.87195456
   0.17240991  0.71328340  1.38756058
   0.17902302  1.23121573  0.86381202
   0.15951238  1.23621808  1.38750607
   0.63569690  0.69861067  0.91674584
   0.69119998  0.72781330  1.39680576
   0.69346424  1.22949524  0.85600119
   0.67442133  1.23240307  1.35083457
   0.15584446  0.74350744  0.64291325
   0.17659264  0.71158053  1.14901444
   0.19934931  1.24025412  0.61375318
   0.12261018  1.22115198  1.15455468
   0.64322215  0.72429347  0.64471516
   0.64649431  0.72172993  1.14983168
   0.64468419  1.22503796  0.62200517
   0.67048941  1.24088898  1.10958810
   0.18872460  0.47919733  0.38696324
   0.18746724  0.45764168  0.85715366
   0.18087983  0.97245226  0.34626222
   0.15234986  0.98729520  0.87688049
   0.65825830  0.45998933  0.36703259
   0.69011559  0.47280427  0.85520779
   0.67585618  1.00652189  0.38413777
   0.67015996  0.98118763  0.90689449
   0.40389177  0.72115466  0.36588765
   0.39612741  0.73885490  0.88369055
   0.42653924  1.22376373  0.36925000
   0.43653103  1.23097619  0.88805250
   0.89386879  0.73140613  0.39255862
   0.89385727  0.75268890  0.87767916
   0.96035736  1.22877787  0.37509199
   0.93871885  1.23352388  0.86502480
   0.39890789  0.97710090  0.64376091
   0.42463232  0.98766831  1.11419407
   0.39701380  1.46156177  0.63906205
   0.43154351  1.47931596  1.10716710
   0.90383282  0.99738304  0.65551647
   0.92381270  0.97037068  1.14773561
   0.92376225  1.46817799  0.62114472
   0.90373846  1.48963410  1.09468029
