unknown system                          
           1
     8.054200    0.000000    0.000000
     0.000000    8.054200    0.000000
     0.000000    0.000000    8.054200
   Li   H 
    32    32
Direct configuration=  2020
  -0.07161700  0.77151560  0.23355491
  -0.08675612  0.81930742  0.73150589
  -0.12817553  1.29566248  0.17011262
  -0.09133923  1.31486595  0.66762071
   0.42238891  0.76511855  0.22055863
   0.41481302  0.81792251  0.72030387
   0.40459753  1.28463206  0.19436140
   0.40778903  1.30791027  0.71952313
   0.39797478  0.55914453  0.45435596
   0.41917360  0.54064446  0.93382370
   0.39735349  1.05719054  0.43924864
   0.41299141  1.04074816  0.95980218
   0.90366945  0.52992433  0.45499747
   0.90174276  0.52294671  0.93614320
   0.91344297  1.04468457  0.46776364
   0.91548407  1.03517314  0.96732520
   0.17264394  0.30668323  0.43178084
   0.16008834  0.26269874  0.94961218
   0.13985531  0.77906006  0.45900453
   0.13719152  0.77477785  0.97711541
   0.63138825  0.28318981  0.44661590
   0.64780824  0.30030249  0.94520352
   0.66560231  0.78730489  0.46234579
   0.65353297  0.77194863  0.96641872
   0.16533244  0.55846930  0.71537750
   0.14616281  0.52673885  1.19631142
   0.15300369  1.04022891  0.69857300
   0.13674547  1.06090615  1.24928190
   0.63757821  0.51443799  0.67399898
   0.66595699  0.52737679  1.19271752
   0.66141980  1.05079722  0.67891375
   0.68506124  1.03495139  1.20920991
   0.16908945  0.52155375  0.44029720
   0.17386566  0.51497829  0.96085229
   0.16894282  1.06647806  0.48190666
   0.16615412  1.03027797  0.96773137
   0.65500725  0.50594297  0.43960238
   0.62943391  0.54797125  0.97797207
   0.66900923  1.04700435  0.45045355
   0.69531917  1.04535752  0.96637620
   0.14642898  0.26965932  0.20592677
   0.15791475  0.30455206  0.67638443
   0.16967794  0.79059240  0.23475070
   0.17678064  0.81554275  0.70944827
   0.64191865  0.28314900  0.21360392
   0.64745448  0.27296058  0.68812301
   0.65639411  0.77896087  0.22663886
   0.64738430  0.78504609  0.72617752
   0.41856073  0.52205963  0.20797210
   0.41138180  0.54657238  0.69017331
   0.44327988  1.03612956  0.21349051
   0.38636064  1.04190650  0.74189443
   0.91615337  0.53831169  0.18335848
   0.90920734  0.54307272  0.69242572
   0.91261585  1.01423167  0.22154330
   0.91808978  1.06108235  0.71567803
   0.42504992  0.79149183  0.49010481
   0.37650948  0.77437309  0.97438474
   0.41351435  1.29318215  0.45414409
   0.40469677  1.29855831  0.96025302
   0.91399607  0.77115329  0.47967005
   0.91590668  0.75500850  0.95182231
   0.91118525  1.27653171  0.44103472
   0.87008887  1.30786604  0.92705249
