unknown system                          
           1
     8.054200    0.000000    0.000000
     0.000000    8.054200    0.000000
     0.000000    0.000000    8.054200
   Li   H 
    32    32
Direct configuration=   820
  -0.15533280  0.71352624  0.02299272
  -0.18934741  0.72201310  0.52458269
  -0.17002655  1.21682776  0.02791477
  -0.18256428  1.21396792  0.53977204
   0.36081863  0.73666268 -0.00362474
   0.34956281  0.71661603  0.54527773
   0.33035199  1.22278223  0.05571532
   0.34341650  1.18983160  0.53514426
   0.31431851  0.48463060  0.28268001
   0.33610214  0.45724715  0.75944253
   0.34650525  0.96374216  0.27281148
   0.31890743  0.95848666  0.79669921
   0.81913765  0.46131725  0.26887641
   0.84328702  0.45719719  0.74635889
   0.80349039  0.97230346  0.27144720
   0.82725021  0.95572519  0.76565867
   0.07866226  0.21998617  0.27742445
   0.10210550  0.22755308  0.78070025
   0.05449356  0.71674759  0.27840928
   0.09044380  0.68286469  0.76471829
   0.55756690  0.24116952  0.28921685
   0.59473287  0.20567507  0.78339593
   0.57183241  0.70985329  0.26065380
   0.59242861  0.71752914  0.75774002
   0.07136389  0.47657117  0.51711479
   0.08572733  0.47968026  1.00253492
   0.08294865  0.99129976  0.53363757
   0.07408010  0.96048464  1.03572007
   0.57501406  0.46858610  0.49773226
   0.56744885  0.45778421  1.02179693
   0.60133819  0.97395433  0.53237910
   0.56894128  0.98065095  1.03736406
   0.06885652  0.47092537  0.27890793
   0.09522166  0.44896073  0.77968530
   0.09296057  0.97336076  0.28034924
   0.06833890  0.96455063  0.77818575
   0.56076944  0.46790420  0.29820661
   0.59088484  0.50752237  0.72763130
   0.57287439  0.97610992  0.29097321
   0.55138084  0.99285837  0.80222793
   0.05723712  0.20388644  0.02244811
   0.08281006  0.23442133  0.57002201
   0.09330265  0.73251570  0.00459468
   0.03801768  0.73688883  0.55122248
   0.57485880  0.22994650  0.01668163
   0.56915470  0.21524682  0.53403707
   0.58103859  0.69627596  0.03745162
   0.56640654  0.73610743  0.52874307
   0.31468037  0.46751027  0.02367752
   0.32333972  0.46570714  0.49982229
   0.31840286  0.96090209  0.00832713
   0.35215323  0.96852716  0.51695446
   0.82684200  0.47330077  0.01633594
   0.84399936  0.47853554  0.52748147
   0.82444915  0.95621332  0.04692484
   0.82688420  1.01206350  0.54616858
   0.30998715  0.71381806  0.28405433
   0.32200083  0.70200240  0.75407898
   0.32974971  1.27336214  0.26643977
   0.36313214  1.21445273  0.79606509
   0.82728683  0.70998308  0.27369797
   0.81286398  0.74354474  0.78521697
   0.80896872  1.19934870  0.27061695
   0.85137708  1.20795035  0.76804115
