unknown system                          
           1
     8.054200    0.000000    0.000000
     0.000000    8.054200    0.000000
     0.000000    0.000000    8.054200
   Li   H 
    32    32
Direct configuration=  2420
  -0.08968688  0.83740646  0.23536295
  -0.07674377  0.81614921  0.73862003
  -0.11189816  1.33671116  0.23066896
  -0.11463619  1.31368602  0.75351447
   0.37882573  0.83857377  0.20819519
   0.40560340  0.82778315  0.70556383
   0.40849295  1.34818244  0.20780374
   0.38956893  1.34429322  0.72638030
   0.36798061  0.57643017  0.49126211
   0.42877815  0.58988225  1.00368034
   0.39173450  1.09070603  0.48345329
   0.39573137  1.08509759  0.98417406
   0.88081516  0.57795979  0.49742729
   0.88651186  0.59391040  1.01511055
   0.90597858  1.06669006  0.45484510
   0.90076680  1.06380240  0.95945099
   0.14282414  0.33687574  0.48922459
   0.15626025  0.33353527  1.00075753
   0.13542178  0.81987545  0.48791610
   0.13602262  0.82532995  0.99953402
   0.65696964  0.32773039  0.47984170
   0.65300829  0.33762494  0.95639415
   0.63489417  0.83367795  0.45350727
   0.64375871  0.85141091  1.00283937
   0.12671527  0.56659416  0.74144090
   0.15665036  0.57720612  1.23954950
   0.14385512  1.08880583  0.73218300
   0.14550017  1.06962446  1.23642876
   0.65504492  0.59971107  0.71916875
   0.64284186  0.60360518  1.23586935
   0.65569376  1.06733571  0.70278854
   0.61754313  1.11284111  1.22683300
   0.14643276  0.55782396  0.52419103
   0.14786534  0.56791841  0.99698166
   0.15926021  1.07621867  0.48468377
   0.15456528  1.04078577  0.97483558
   0.64890889  0.56333773  0.47045405
   0.65071287  0.57929606  0.97383905
   0.63106439  1.08623398  0.48041818
   0.65095707  1.09655210  0.95159414
   0.12632647  0.34549001  0.23753793
   0.13235487  0.32232901  0.77828369
   0.14548945  0.81208103  0.24881393
   0.13479031  0.81734831  0.73921827
   0.63104466  0.34481025  0.23693642
   0.65966312  0.35217347  0.75908989
   0.62274738  0.84604629  0.23057499
   0.66021549  0.83734211  0.73327335
   0.38399408  0.58322217  0.23616309
   0.42171512  0.57388036  0.72800291
   0.37983434  1.08423737  0.22017162
   0.39245990  1.08011150  0.72799143
   0.87290087  0.57942880  0.24891131
   0.88151578  0.58596738  0.73736897
   0.86873525  1.08052312  0.19777080
   0.89598659  1.07447732  0.72342582
   0.37898420  0.83213972  0.45277281
   0.39007275  0.81989434  0.96131512
   0.39772175  1.30734033  0.47455592
   0.39302698  1.30487573  0.97013892
   0.88222469  0.82252899  0.46620460
   0.86872724  0.83973309  0.98393276
   0.88106127  1.30796723  0.47141424
   0.91031470  1.33889554  0.98204803
