unknown system                          
           1
     8.054200    0.000000    0.000000
     0.000000    8.054200    0.000000
     0.000000    0.000000    8.054200
   Li   H 
    32    32
Direct configuration=  8020
  -0.18605825  0.70518272 -0.12376849
  -0.14694077  0.72845925  0.36904797
  -0.13856317  1.22530535 -0.15199339
  -0.14444082  1.19167265  0.37569446
   0.34903940  0.70264435 -0.14663917
   0.34492008  0.73156417  0.37410794
   0.36526887  1.19523036 -0.14055250
   0.35982537  1.18149487  0.37826091
   0.35845868  0.42275452  0.13298904
   0.33091090  0.44867502  0.61332954
   0.35599134  0.94815039  0.11333529
   0.34441324  0.95759141  0.61394632
   0.84674215  0.44327024  0.11575942
   0.82656644  0.47622269  0.62436809
   0.84172115  0.99756444  0.12435394
   0.83617140  0.96498947  0.63337618
   0.10064342  0.18193756  0.09627590
   0.11380130  0.22914784  0.61275915
   0.10283499  0.71138954  0.13035568
   0.09997182  0.68771948  0.60250537
   0.61305558  0.21006899  0.11946435
   0.59617567  0.21599946  0.60707456
   0.58624221  0.69749187  0.13075579
   0.58732479  0.71508005  0.61354171
   0.09133815  0.46700310  0.36200878
   0.10231749  0.45813210  0.85299465
   0.07781758  0.98968420  0.37436712
   0.08395520  0.95116544  0.86116276
   0.60882606  0.45146555  0.37946772
   0.55919055  0.46433074  0.85204780
   0.58280223  0.95689404  0.34002489
   0.61049986  0.95549934  0.86970301
   0.11613232  0.45703524  0.14078104
   0.09680578  0.46469940  0.60124027
   0.07100347  0.94264285  0.11692293
   0.10587744  0.93116560  0.60994582
   0.60555416  0.45538981  0.10408768
   0.60655431  0.45140057  0.62590722
   0.58514094  0.95607255  0.11409787
   0.60617325  0.95801328  0.62549878
   0.09809182  0.19009451 -0.14721471
   0.10139695  0.21704536  0.36070643
   0.07740226  0.68708818 -0.14432678
   0.10122474  0.74098651  0.36736977
   0.60617286  0.23725287 -0.12431698
   0.61551389  0.21416387  0.36994428
   0.57605004  0.70561379 -0.12749775
   0.58775099  0.69844488  0.38286907
   0.34197603  0.42995820 -0.14734903
   0.36360424  0.42556127  0.36692403
   0.34368368  0.98034675 -0.11957148
   0.32842249  0.95573206  0.33493899
   0.85684081  0.47546928 -0.12190625
   0.86151752  0.42560354  0.38521225
   0.85788769  0.95535991 -0.13483288
   0.83957175  0.96236569  0.35811499
   0.34977118  0.69620153  0.13865880
   0.35801091  0.69503981  0.60489856
   0.38664343  1.17590597  0.12787538
   0.36993059  1.21211468  0.63428593
   0.85163867  0.69861048  0.12406648
   0.83047432  0.71956450  0.61256332
   0.84049081  1.22305087  0.09082571
   0.87298266  1.20332555  0.62213634
