unknown system                          
           1
     8.054200    0.000000    0.000000
     0.000000    8.054200    0.000000
     0.000000    0.000000    8.054200
   Li   H 
    32    32
Direct configuration=  3620
   0.07860586  0.85163429  0.24318524
   0.06192635  0.85611177  0.73590579
   0.04714381  1.37578279  0.23713605
   0.03839824  1.36092634  0.73757441
   0.55057671  0.88242806  0.22219285
   0.54083489  0.85737157  0.73707027
   0.53963004  1.36913729  0.22568457
   0.54624181  1.33757560  0.74092962
   0.55591269  0.63018039  0.46500470
   0.55574512  0.63430612  0.97006081
   0.54500972  1.11279206  0.48544286
   0.56828609  1.13429503  1.00054971
   1.06449561  0.60032647  0.48689832
   1.04812793  0.63980469  0.98038839
   1.07254857  1.12484578  0.47018727
   1.06956486  1.11585247  0.98326059
   0.29112381  0.36430713  0.49205344
   0.30051586  0.36725183  0.98465607
   0.31601085  0.82538980  0.48330448
   0.32445134  0.85106965  0.99130027
   0.78910745  0.37631989  0.49056926
   0.81337990  0.37214672  1.00145625
   0.83513651  0.87459837  0.50066596
   0.80958410  0.88147016  0.98527330
   0.30407479  0.59662551  0.74414766
   0.31143528  0.59463610  1.23412729
   0.28632807  1.10662772  0.72187707
   0.30902776  1.10608092  1.25177417
   0.79783163  0.62571805  0.72740934
   0.78212642  0.61962074  1.23133604
   0.79015947  1.11137283  0.72861046
   0.81348030  1.11924492  1.26815073
   0.31019570  0.57951057  0.49048863
   0.30052580  0.62497970  0.97291922
   0.30108908  1.11709866  0.46492611
   0.31759707  1.13360565  1.02315453
   0.79122002  0.63279576  0.48409595
   0.80410502  0.60392431  0.97012846
   0.79404415  1.11460655  0.51047436
   0.81828869  1.12774421  0.99920323
   0.28200345  0.34803198  0.24855968
   0.32103257  0.34000576  0.73239187
   0.31469866  0.82162012  0.22465685
   0.31075093  0.82288186  0.73679508
   0.78276463  0.35359719  0.25833396
   0.78538543  0.39033136  0.77116673
   0.76936001  0.87762437  0.24428615
   0.81961473  0.88111239  0.72870358
   0.56384756  0.59786455  0.23888239
   0.54224148  0.62609778  0.70998348
   0.55761026  1.12732848  0.24801607
   0.55341388  1.10344027  0.73961862
   1.07399499  0.61034174  0.24621546
   1.04668214  0.61094195  0.74328029
   1.04127284  1.09372729  0.24188058
   1.05888514  1.09309167  0.74751366
   0.55820227  0.86234817  0.46839379
   0.56862358  0.88771977  0.99870459
   0.52035244  1.35174129  0.50721984
   0.57390447  1.36456158  1.00184120
   1.07371919  0.86939408  0.50990944
   1.07366083  0.88267362  0.98864495
   1.04675335  1.34484237  0.49994587
   1.03121416  1.32792272  0.99187676
