unknown system                          
           1
     8.054200    0.000000    0.000000
     0.000000    8.054200    0.000000
     0.000000    0.000000    8.054200
   Li   H 
    32    32
Direct configuration=  8220
  -0.19043814  0.66123316 -0.17737883
  -0.18474357  0.62309941  0.30506475
  -0.18969520  1.14805030 -0.15248932
  -0.15757932  1.13943157  0.33836548
   0.32934853  0.63200105 -0.18058272
   0.31144745  0.66358414  0.32572767
   0.33670588  1.12645809 -0.15728598
   0.32955489  1.10165741  0.33206481
   0.31317401  0.35459862  0.09047323
   0.29533996  0.37998808  0.56613431
   0.32117358  0.88332746  0.08470157
   0.31697405  0.87482815  0.60040148
   0.82944318  0.38589114  0.05569181
   0.80460369  0.36234910  0.55731173
   0.82432207  0.87971558  0.05852364
   0.80740811  0.89507892  0.58222563
   0.06931803  0.13527494  0.08395275
   0.06596739  0.13698849  0.58051518
   0.07303296  0.62075095  0.09294832
   0.05577929  0.64074712  0.56052344
   0.56339196  0.11748298  0.08305917
   0.53437441  0.14070875  0.58399168
   0.57004267  0.64515459  0.08500878
   0.55554701  0.63503014  0.58459001
   0.04777033  0.38174074  0.32860724
   0.07400811  0.37281384  0.80888029
   0.04569503  0.87767147  0.32057292
   0.06115688  0.87659397  0.84640300
   0.53654364  0.38202546  0.33848913
   0.54755898  0.37612362  0.86120151
   0.56759246  0.87104763  0.33574167
   0.56685923  0.90954222  0.83085785
   0.05108348  0.37606454  0.06623013
   0.06173103  0.37143939  0.56968724
   0.06462131  0.87797863  0.08064135
   0.06792642  0.88372766  0.56240190
   0.57779617  0.38886440  0.09988646
   0.55823178  0.37981255  0.61848906
   0.55054251  0.88785742  0.08883946
   0.56421702  0.89996831  0.58516273
   0.08682996  0.11745798 -0.16880817
   0.09618271  0.14054825  0.32916403
   0.11419030  0.64092042 -0.15588561
   0.06297322  0.62784856  0.33254813
   0.58227571  0.15246008 -0.16936175
   0.56431048  0.13227894  0.34983396
   0.57635336  0.64766382 -0.18875131
   0.54849688  0.64269379  0.33681859
   0.32935768  0.39182575 -0.16126963
   0.30466917  0.37457957  0.32367065
   0.33018104  0.88028155 -0.16753013
   0.33780707  0.89401574  0.35571272
   0.83257947  0.37683994 -0.18396349
   0.83986889  0.37867861  0.34018996
   0.80261086  0.90058265 -0.16039109
   0.82900085  0.91152549  0.31737610
   0.32477837  0.63119094  0.08701808
   0.31444561  0.66907753  0.58135908
   0.34867918  1.12796570  0.07575965
   0.30173324  1.11788968  0.58799836
   0.82277818  0.66330094  0.08040844
   0.84532499  0.61817587  0.57820364
   0.80841856  1.12166723  0.07413779
   0.82268414  1.12010753  0.59652376
