unknown system                          
           1
     8.054200    0.000000    0.000000
     0.000000    8.054200    0.000000
     0.000000    0.000000    8.054200
   Li   H 
    32    32
Direct configuration=  6020
  -0.10364844  0.83095287  0.03556050
  -0.10185588  0.86408247  0.55672239
  -0.11202708  1.34138315  0.02454281
  -0.07129888  1.36560617  0.52399110
   0.40624422  0.82144862  0.00752694
   0.41240913  0.82339669  0.52858169
   0.41023535  1.32793873  0.00553745
   0.38193741  1.35916483  0.50966724
   0.38681329  0.58172532  0.27331768
   0.40406785  0.57462950  0.78255053
   0.40228584  1.10826607  0.29766994
   0.40594379  1.08513429  0.76728102
   0.89464715  0.59650328  0.28083443
   0.89366026  0.57098652  0.77119757
   0.90637601  1.07809826  0.24920525
   0.88991648  1.08964460  0.77779418
   0.13860244  0.34641276  0.26592881
   0.14709505  0.33011858  0.77705534
   0.14975883  0.84494828  0.29289424
   0.14529123  0.84536943  0.81222596
   0.64397568  0.35309332  0.28425076
   0.64798991  0.31865568  0.76677328
   0.62427644  0.85297515  0.27801418
   0.65422490  0.82896917  0.76463011
   0.18350725  0.62075067  0.53635935
   0.14750020  0.58239341  1.05568705
   0.15023080  1.10794268  0.51064142
   0.16581541  1.11958195  1.04131362
   0.65601607  0.59411592  0.52114218
   0.64130006  0.58418771  0.99366847
   0.67715141  1.08353129  0.48986457
   0.63812384  1.05631349  0.99690902
   0.16039023  0.60553152  0.31867921
   0.16181658  0.60049251  0.78780104
   0.12740024  1.07955408  0.25848052
   0.14149612  1.11615993  0.80168368
   0.66650288  0.61659661  0.29067361
   0.62605574  0.56593881  0.75543651
   0.67186513  1.08231664  0.21654058
   0.65027945  1.08378487  0.73732383
   0.14745315  0.36865583  0.04322401
   0.13608718  0.33954483  0.49041568
   0.14600494  0.81160511  0.06275900
   0.18226992  0.86338927  0.54436864
   0.66401243  0.35828466  0.01078791
   0.67122263  0.34413443  0.51900031
   0.63920556  0.79890446  0.01585631
   0.63170984  0.83281047  0.50737247
   0.39982530  0.59135936  0.01893512
   0.39772836  0.60242950  0.53882345
   0.40838408  1.10109161  0.05800713
   0.38509530  1.10047605  0.51733929
   0.87941252  0.60330727  0.02876900
   0.91117238  0.62066355  0.53149148
   0.88357416  1.11060672  0.00560212
   0.89896474  1.11998767  0.52756667
   0.37858205  0.84763956  0.24119054
   0.40625460  0.86091043  0.78516696
   0.41103515  1.35362715  0.27144551
   0.39082089  1.32209748  0.77696433
   0.88207603  0.85455951  0.31220958
   0.88935490  0.83963275  0.78470418
   0.90893824  1.35034425  0.24873473
   0.89205719  1.36350671  0.76992071
