unknown system                          
           1
     8.054200    0.000000    0.000000
     0.000000    8.054200    0.000000
     0.000000    0.000000    8.054200
   Li   H 
    32    32
Direct configuration=  8620
  -0.27580475  0.69571905 -0.24524795
  -0.24218225  0.70889498  0.27951619
  -0.22683198  1.23890762 -0.23603088
  -0.25774279  1.21660002  0.25972386
   0.25876186  0.69183178 -0.25286135
   0.22518556  0.69242174  0.28333074
   0.24406195  1.16808406 -0.21721385
   0.24945453  1.19273889  0.27654546
   0.25667200  0.47831083  0.01956614
   0.22461506  0.46205373  0.51643654
   0.25339710  0.94606432  0.04076978
   0.25270892  0.95627648  0.54049106
   0.77649078  0.45101494  0.02271960
   0.72215785  0.44242455  0.51587418
   0.76391090  0.95336516  0.01488918
   0.75088170  0.96279591  0.52373505
  -0.00862921  0.18399678  0.00636973
   0.00794181  0.19242705  0.51199447
  -0.00682043  0.69305806  0.03835777
  -0.01800307  0.70311668  0.53891642
   0.52065756  0.20266553  0.00101415
   0.49635452  0.19125913  0.52593698
   0.50441806  0.68253905  0.02234253
   0.49048919  0.68451275  0.52729731
  -0.00871168  0.45605170  0.28329664
   0.01265441  0.45341750  0.79049950
   0.01727008  0.95195597  0.26544554
   0.00735952  0.94103376  0.78969777
   0.48372979  0.47280618  0.23433414
   0.48979530  0.43495482  0.75045821
   0.51009326  0.93802408  0.25436166
   0.50420575  0.96325592  0.75682276
   0.00527185  0.43192090  0.01596306
  -0.01851995  0.43646667  0.50453603
   0.02304835  0.93784830  0.02819040
   0.00811820  0.96550016  0.53566911
   0.53561612  0.43795662 -0.01960135
   0.48583908  0.44209591  0.50553331
   0.47346326  0.94880564  0.01601655
   0.47842431  0.93266438  0.50418306
  -0.00127604  0.20675376 -0.23558216
   0.01006900  0.21187971  0.26061898
   0.01473088  0.71751286 -0.22836162
  -0.00832248  0.71179657  0.27983293
   0.54678663  0.18196120 -0.24596142
   0.52477470  0.20590559  0.26483556
   0.50013829  0.67571216 -0.24173829
   0.51943507  0.68158499  0.28916492
   0.24415758  0.41939029 -0.22694967
   0.25919065  0.45540016  0.25458301
   0.27173222  0.94294901 -0.22310856
   0.22998451  0.92765995  0.27966184
   0.77007060  0.45308782 -0.24236440
   0.74982513  0.45086720  0.27560979
   0.73473460  0.96843869 -0.22212565
   0.73881567  0.94479650  0.28826296
   0.26640282  0.71257308  0.01630322
   0.22715497  0.69024377  0.53652833
   0.22266785  1.19165281  0.01970833
   0.23213492  1.19078934  0.54465030
   0.74786238  0.70700268  0.01163668
   0.72610117  0.68019494  0.52336137
   0.76098259  1.18320708  0.02150534
   0.74866297  1.20832560  0.53291253
