unknown system                          
           1
     8.054200    0.000000    0.000000
     0.000000    8.054200    0.000000
     0.000000    0.000000    8.054200
   Li   H 
    32    32
Direct configuration=  3220
   0.00076617  0.93811100  0.36549997
  -0.00392097  0.92146274  0.83995707
  -0.01526732  1.43519646  0.34653883
   0.00119027  1.40742147  0.83676176
   0.51495579  0.92140056  0.33932325
   0.49349838  0.93047977  0.85163145
   0.48783778  1.42168310  0.36290181
   0.49583147  1.46022092  0.83215175
   0.49621977  0.68354986  0.58030177
   0.45977055  0.69231076  1.09629587
   0.47819407  1.17611533  0.58548394
   0.46722418  1.19205239  1.10813586
   0.99532952  0.65817173  0.59415070
   0.97544723  0.68023874  1.10279155
   0.99080525  1.16738044  0.59774520
   0.97708509  1.18197202  1.08509706
   0.25657866  0.43280598  0.59302246
   0.22903570  0.45620901  1.07218437
   0.21412103  0.94446198  0.58634919
   0.23908940  0.91951092  1.06870949
   0.73566236  0.40121253  0.59682581
   0.73587028  0.44754874  1.07400819
   0.74072756  0.93496923  0.59060518
   0.73474605  0.94332929  1.07656955
   0.24030066  0.69995076  0.83464277
   0.24257290  0.65140486  1.32628478
   0.24903501  1.16223987  0.82304845
   0.23770649  1.17896941  1.32740704
   0.73245626  0.68634536  0.83932879
   0.76106851  0.66925572  1.33348483
   0.73284608  1.19746341  0.85584703
   0.76400702  1.17082215  1.35086061
   0.24687637  0.66939385  0.58516162
   0.22642474  0.67955475  1.09399203
   0.24777696  1.16652317  0.58900808
   0.23708222  1.19696827  1.07838141
   0.75153247  0.69120354  0.57638622
   0.74702185  0.68505589  1.07002784
   0.73061528  1.18361486  0.59350699
   0.71278744  1.19802709  1.11280055
   0.25730407  0.40367335  0.32253323
   0.23791842  0.44204471  0.82116979
   0.23293473  0.93635970  0.32281006
   0.23405136  0.92333953  0.82758610
   0.75735736  0.42564554  0.36679708
   0.73254517  0.44200674  0.86238158
   0.74905262  0.92956766  0.34970041
   0.71356421  0.95039691  0.83148121
   0.50993572  0.67678102  0.35109764
   0.48293526  0.68489075  0.89100760
   0.51068358  1.18394628  0.35816630
   0.47060669  1.20583752  0.83452687
   1.00321050  0.69517417  0.33332607
   0.98657611  0.69121440  0.84004657
   1.00324677  1.19977389  0.35561668
   0.98038573  1.16751307  0.84479746
   0.51408743  0.93677831  0.61708263
   0.48539850  0.94481309  1.10102230
   0.49819077  1.42883158  0.61043722
   0.48467251  1.42851464  1.10432551
   0.98036411  0.92323792  0.60107322
   0.98358566  0.95230578  1.11911004
   1.00879813  1.43535126  0.58235397
   1.01218279  1.45761470  1.07793850
