unknown system                          
           1
     8.054200    0.000000    0.000000
     0.000000    8.054200    0.000000
     0.000000    0.000000    8.054200
   Li   H 
    32    32
Direct configuration=  2620
  -0.11403738  0.89366232  0.29695738
  -0.10058932  0.89500156  0.77609378
  -0.13519427  1.39812444  0.26354182
  -0.12246053  1.35381190  0.79287014
   0.40337214  0.88685147  0.29129395
   0.40720713  0.89264442  0.79011695
   0.39848137  1.39945213  0.27244839
   0.36261605  1.37835205  0.75452360
   0.36709292  0.61225316  0.54854049
   0.39758548  0.63547101  1.02619376
   0.40250846  1.15682088  0.50631880
   0.40588110  1.11638160  1.04304707
   0.86978624  0.64432925  0.53513038
   0.89415333  0.64789732  1.03323971
   0.89837612  1.15351751  0.51554119
   0.89401087  1.12955517  1.04499904
   0.11245206  0.38099071  0.51477889
   0.16647957  0.36219284  1.01914612
   0.15965517  0.91105516  0.53918588
   0.15371700  0.87134447  1.02394195
   0.63768794  0.40985988  0.53388026
   0.63484128  0.37546069  1.03259715
   0.66054891  0.87651242  0.52217204
   0.62120740  0.89150513  1.03023495
   0.13093300  0.63648208  0.78228466
   0.12665438  0.61626509  1.28570344
   0.13125533  1.12743222  0.79381380
   0.13646835  1.13294394  1.26362465
   0.64394272  0.60478355  0.80201198
   0.63208805  0.65945511  1.26623284
   0.64481777  1.10977976  0.76577829
   0.63207070  1.14834204  1.29257210
   0.12894625  0.64191034  0.51857408
   0.12123539  0.63237188  1.03729305
   0.16973358  1.16627154  0.50026106
   0.15701671  1.15000658  1.01805617
   0.59978995  0.63724974  0.48696282
   0.63521839  0.64536131  1.04366811
   0.65578509  1.11252858  0.51958102
   0.63282871  1.13597540  1.04339934
   0.14479923  0.37867970  0.26440340
   0.14200196  0.36304979  0.78214918
   0.12597672  0.90586932  0.29817647
   0.16711759  0.90176720  0.78674429
   0.62626804  0.39662065  0.27805667
   0.64631302  0.36271264  0.78759954
   0.64113384  0.89527959  0.25624596
   0.67021950  0.87790045  0.76228130
   0.37556821  0.62808644  0.25153365
   0.39096405  0.59429656  0.78309445
   0.41653937  1.10473705  0.25559904
   0.39157411  1.13057149  0.77977920
   0.87458966  0.63767622  0.29428616
   0.89088755  0.65337361  0.76082398
   0.88059068  1.15743360  0.27282580
   0.88400901  1.12296227  0.75695595
   0.38751864  0.88677287  0.55218978
   0.39140311  0.88582602  1.00829664
   0.37812241  1.39230852  0.49718282
   0.42373458  1.38783166  1.00829642
   0.92592082  0.89659777  0.54518929
   0.89020322  0.92407815  1.01400118
   0.89007575  1.41017400  0.53802398
   0.87686314  1.41996903  1.03128722
