unknown system                          
           1
     8.054200    0.000000    0.000000
     0.000000    8.054200    0.000000
     0.000000    0.000000    8.054200
   Li   H 
    32    32
Direct configuration=  4820
  -0.10760108  0.69276348  0.08007198
  -0.13065423  0.71854068  0.57697425
  -0.11726103  1.19598675  0.06522885
  -0.09537767  1.19165543  0.54299661
   0.38681084  0.69719693  0.07862656
   0.37898060  0.65635172  0.54598294
   0.37689645  1.16124926  0.05348962
   0.36769566  1.19455156  0.56368646
   0.36873549  0.43689842  0.28031597
   0.37851971  0.42166392  0.81917761
   0.37342981  0.96988708  0.30771026
   0.36524441  0.92620335  0.76973397
   0.86074879  0.45036286  0.32123488
   0.89511587  0.39720785  0.81402706
   0.87677482  0.94575525  0.30662963
   0.86840731  0.92784994  0.83483534
   0.14588903  0.19389854  0.32661254
   0.11025676  0.17659677  0.79201385
   0.12050261  0.67818787  0.31680890
   0.13013363  0.67307904  0.82469970
   0.63004500  0.18084983  0.30181959
   0.64757319  0.18038884  0.79510446
   0.60004178  0.71689004  0.31922118
   0.61643669  0.67526837  0.79347466
   0.12935421  0.44474657  0.60612312
   0.14055228  0.44027117  1.05813798
   0.13171678  0.92466279  0.56360004
   0.12849271  0.92061966  1.06100535
   0.64512256  0.42124203  0.57839399
   0.63956747  0.45635989  1.06689422
   0.62704089  0.93534804  0.54541025
   0.62613927  0.93339214  1.02818389
   0.11984991  0.43682749  0.30071276
   0.14470494  0.43042928  0.83239726
   0.11128110  0.90713517  0.30809634
   0.10811663  0.92175216  0.79730326
   0.63835858  0.44137050  0.32799457
   0.63254263  0.44191358  0.82186102
   0.63380838  0.94488902  0.30383608
   0.59634173  0.94520711  0.78688110
   0.08451806  0.20662952  0.05342433
   0.13473139  0.19307934  0.57482875
   0.13402706  0.69857490  0.07323373
   0.10140135  0.69391245  0.57526473
   0.61550117  0.20311237  0.02746297
   0.62708495  0.20286083  0.53553058
   0.65829645  0.71404580  0.05835724
   0.63297875  0.66697069  0.56570558
   0.41078245  0.44043575  0.06380922
   0.36204469  0.43563609  0.55431801
   0.34377130  0.92111102  0.04040901
   0.35180772  0.93697094  0.52582013
   0.90774469  0.44922676  0.09084766
   0.90305285  0.43183517  0.55495873
   0.88621622  0.95904867  0.06046832
   0.87488908  0.94346229  0.57959121
   0.36898101  0.71351494  0.33095266
   0.40987420  0.66406345  0.82787399
   0.37343747  1.19857696  0.29892493
   0.37835149  1.17802318  0.79606829
   0.87214687  0.70416268  0.31787234
   0.89114977  0.67993439  0.82219354
   0.86123249  1.18516625  0.33129816
   0.88056874  1.15833312  0.79133144
