unknown system                          
           1
     8.054200    0.000000    0.000000
     0.000000    8.054200    0.000000
     0.000000    0.000000    8.054200
   Li   H 
    32    32
Direct configuration=  6420
  -0.19292797  0.84626008 -0.08876424
  -0.17061917  0.84004589  0.40665771
  -0.16513636  1.34308104 -0.08323087
  -0.16981385  1.33058256  0.41839159
   0.29270136  0.83650214 -0.11039657
   0.33744701  0.84404677  0.40827487
   0.33093793  1.34161503 -0.10571429
   0.32571137  1.35824719  0.42323234
   0.33996822  0.60895299  0.15485222
   0.30990658  0.59863397  0.67384425
   0.31272475  1.09779276  0.15941110
   0.33404758  1.11149528  0.68088487
   0.82922081  0.58397239  0.14814230
   0.80768183  0.59779009  0.62672242
   0.84147109  1.07769601  0.15503993
   0.83473265  1.08298170  0.65237959
   0.06108356  0.34109197  0.17891098
   0.09301919  0.35259790  0.62640464
   0.06382389  0.84156764  0.16999467
   0.08792551  0.81285521  0.67099273
   0.58581253  0.33471377  0.14546463
   0.57601268  0.33693399  0.67821489
   0.57133079  0.84747754  0.16924820
   0.55593581  0.84121128  0.64383145
   0.08445183  0.58737629  0.39474067
   0.04754232  0.58022791  0.91198038
   0.10433832  1.08729465  0.43985940
   0.05662539  1.08948008  0.93168840
   0.57256284  0.57008725  0.37823417
   0.55540309  0.58776152  0.90446533
   0.57142488  1.08344619  0.38775235
   0.58551622  1.08443886  0.88540022
   0.05915040  0.60219208  0.14631984
   0.05597308  0.57719122  0.67087894
   0.07703264  1.11433493  0.18042239
   0.06796089  1.10119211  0.67100138
   0.58752696  0.60174877  0.15028495
   0.57023227  0.58562982  0.66076193
   0.54206181  1.07344913  0.16157817
   0.57041148  1.05954785  0.65752513
   0.08966492  0.35375209 -0.09408009
   0.05956628  0.33440239  0.40974511
   0.02731990  0.87237664 -0.10751821
   0.08465626  0.84207737  0.45077478
   0.58726527  0.33657161 -0.08523537
   0.57762525  0.36414290  0.39342001
   0.53559926  0.83459853 -0.09664446
   0.59884618  0.84914028  0.40846286
   0.31417284  0.60016323 -0.09192340
   0.29209916  0.59121933  0.41434304
   0.33831490  1.09943961 -0.10256999
   0.34205819  1.10640103  0.40702050
   0.82429130  0.58807211 -0.10340360
   0.82649809  0.58990759  0.40237355
   0.82888935  1.10446832 -0.09344681
   0.82032162  1.12066051  0.40910246
   0.30153599  0.83857739  0.12998456
   0.32364674  0.84350163  0.65794081
   0.31991453  1.36952194  0.16535954
   0.33338895  1.33245076  0.67756855
   0.81998985  0.82047707  0.14828491
   0.81618369  0.83579413  0.66221611
   0.82360724  1.34700632  0.16330888
   0.80204924  1.33439158  0.67551813
