unknown system                          
           1
     8.054200    0.000000    0.000000
     0.000000    8.054200    0.000000
     0.000000    0.000000    8.054200
   Li   H 
    32    32
Direct configuration=   420
  -0.13670381  0.62275732  0.01285866
  -0.13123652  0.60560220  0.48502666
  -0.09459948  1.09458356  0.02209840
  -0.09448755  1.12121096  0.52431552
   0.39785948  0.61313089  0.01508197
   0.36910271  0.63799013  0.50646180
   0.41188527  1.11626397  0.00786140
   0.37810505  1.12847900  0.51388382
   0.36634639  0.36191631  0.23295663
   0.38454772  0.35848135  0.76384322
   0.36323757  0.88031805  0.29057919
   0.37509359  0.84119903  0.74777918
   0.87430329  0.35463084  0.23900260
   0.89619765  0.35017643  0.76431349
   0.85038202  0.85983350  0.26054582
   0.87706352  0.86621459  0.72875165
   0.12326375  0.13813037  0.25974951
   0.15938849  0.09258940  0.76778244
   0.11110215  0.60917134  0.25192990
   0.10018179  0.61297083  0.77141445
   0.60440569  0.13503370  0.25723484
   0.62878941  0.09795421  0.77214034
   0.60810334  0.63141949  0.22434799
   0.62302237  0.62612433  0.77625358
   0.13166972  0.38838698  0.53071580
   0.12775232  0.38871980  1.02013369
   0.13455244  0.86911966  0.48385136
   0.12706462  0.86792981  0.99714605
   0.61233042  0.35978834  0.51567945
   0.64067309  0.34929525  0.99083784
   0.60667274  0.87758296  0.53440417
   0.64712713  0.89210279  1.02294185
   0.10142489  0.35202422  0.25975951
   0.13225850  0.38930526  0.77446029
   0.10290496  0.86709951  0.27414925
   0.14565249  0.88246987  0.76764665
   0.60359494  0.35856073  0.23028110
   0.63290729  0.33414154  0.74822628
   0.61497159  0.89447895  0.26802721
   0.61546610  0.86395307  0.77173259
   0.13145800  0.15283499  0.00853005
   0.13537368  0.11504429  0.52107393
   0.09349341  0.61847055  0.00726785
   0.11649280  0.62282134  0.48727547
   0.61180223  0.10933525  0.02136735
   0.62214647  0.10591660  0.50204446
   0.62586604  0.61841715  0.01819740
   0.63514834  0.63197215  0.50201614
   0.37573782  0.35619952  0.00500307
   0.35500652  0.36325345  0.53435396
   0.39138723  0.82671452 -0.02060076
   0.37594644  0.84738810  0.52339059
   0.88287756  0.35395530  0.01751756
   0.90251322  0.35057989  0.53082341
   0.88230806  0.86403108  0.01635777
   0.86022024  0.87577143  0.49969018
   0.38355739  0.61254104  0.24934561
   0.37557198  0.59835018  0.77574189
   0.37512873  1.12322567  0.26531482
   0.37474804  1.10095489  0.78557672
   0.85842244  0.61764551  0.25014444
   0.88378270  0.63693725  0.76140218
   0.85470921  1.09182349  0.25022300
   0.91003990  1.12027111  0.80051016
