unknown system                          
           1
     8.054200    0.000000    0.000000
     0.000000    8.054200    0.000000
     0.000000    0.000000    8.054200
   Li   H 
    32    32
Direct configuration=  7820
  -0.13055947  0.77256698 -0.18046121
  -0.17564668  0.79766639  0.30293500
  -0.16474746  1.25776204 -0.22580577
  -0.14881748  1.26191161  0.31749926
   0.37567626  0.76603587 -0.17914857
   0.33660205  0.76937204  0.31594593
   0.36546615  1.26675957 -0.19553398
   0.36363634  1.26693920  0.27461020
   0.37673042  0.51556591  0.06873699
   0.33939102  0.53242985  0.57122241
   0.35913837  1.02278149  0.06172091
   0.36215014  1.01841899  0.59753662
   0.87049708  0.51130157  0.04244250
   0.87175975  0.53036061  0.55687727
   0.86861503  1.04014089  0.04882990
   0.86859702  1.04164904  0.57694356
   0.12437995  0.29251532  0.04310997
   0.11757130  0.27244241  0.57743640
   0.10888433  0.77152041  0.05377155
   0.12968266  0.77151370  0.58098950
   0.62825584  0.29255193  0.04689911
   0.58152823  0.28208498  0.54015275
   0.60425343  0.79389512  0.07273312
   0.61304516  0.77287258  0.59391301
   0.08309095  0.54760107  0.31925682
   0.12002381  0.53129538  0.83371090
   0.10761629  1.02768437  0.33262491
   0.10111111  1.03953225  0.82292428
   0.61652214  0.55194604  0.32638349
   0.60216841  0.53435819  0.83098100
   0.57938291  1.03121904  0.31785849
   0.63358681  1.03918949  0.82906966
   0.10953679  0.52065088  0.06825084
   0.10776896  0.50886981  0.57318107
   0.11618672  1.04715866  0.06161283
   0.12197837  1.00992304  0.56539163
   0.62707927  0.53778619  0.05783517
   0.66162181  0.54690522  0.56219531
   0.60524301  1.04726361  0.06939721
   0.59360379  1.02120591  0.57802322
   0.13520424  0.25325981 -0.20725533
   0.10948904  0.29656089  0.27829576
   0.11671743  0.76495585 -0.19640479
   0.09108375  0.79020535  0.32373767
   0.59929807  0.30541985 -0.18739780
   0.60488822  0.31775020  0.29013308
   0.60597130  0.77841157 -0.15996321
   0.62158257  0.80875572  0.32394084
   0.37602577  0.52901172 -0.17874843
   0.36862466  0.54757873  0.34176570
   0.33758273  1.02336863 -0.16207294
   0.33260246  1.04224583  0.33668631
   0.88595369  0.53905465 -0.20743456
   0.84648415  0.55125421  0.29388176
   0.87319425  1.02878946 -0.17595855
   0.81679468  1.03086633  0.33067465
   0.39059674  0.77728660  0.08488138
   0.39410090  0.77389330  0.58014310
   0.36109110  1.29446404  0.02975879
   0.32408388  1.27525127  0.56598653
   0.86571241  0.82422334  0.07507786
   0.83791246  0.80658452  0.56006118
   0.85920490  1.28202170  0.03065327
   0.87015157  1.25715200  0.54984904
