unknown system                          
           1
     8.054200    0.000000    0.000000
     0.000000    8.054200    0.000000
     0.000000    0.000000    8.054200
   Li   H 
    32    32
Direct configuration=   620
  -0.16043625  0.73184727  0.03019844
  -0.15016374  0.71828343  0.49846291
  -0.16153954  1.20669599 -0.00463237
  -0.13785462  1.22270232  0.51778662
   0.33034907  0.71749286  0.02611716
   0.33489861  0.69394419  0.51444789
   0.35247327  1.21670563  0.00366112
   0.33198806  1.22542571  0.51160586
   0.34478810  0.46765715  0.26758332
   0.37227573  0.48775066  0.77126065
   0.34629542  0.96551795  0.27480892
   0.31437936  0.95463875  0.75677840
   0.84231874  0.47515905  0.25652200
   0.83933687  0.46665007  0.75793940
   0.84951846  1.00191338  0.28840226
   0.84156940  0.98563421  0.74005719
   0.09565112  0.21663248  0.24769521
   0.10331807  0.24009358  0.75617431
   0.08645513  0.73061238  0.25455638
   0.08218987  0.69718969  0.74932540
   0.57061969  0.23079992  0.27987314
   0.54971545  0.21293135  0.74760423
   0.61345152  0.71266866  0.24861499
   0.60841179  0.73129665  0.76314585
   0.09499715  0.48902512  0.49455902
   0.09854896  0.47444494  0.98869599
   0.10626276  0.96127275  0.48287194
   0.07485979  0.98608050  1.00835131
   0.58335880  0.47523375  0.51934390
   0.58410531  0.48094672  1.00624121
   0.58241571  0.96297482  0.50468941
   0.58525452  0.98304704  1.01994536
   0.07259666  0.47619227  0.26137204
   0.11275143  0.44993999  0.73574359
   0.06418287  0.98104166  0.25634202
   0.07798895  0.98723689  0.77048012
   0.60495761  0.46034685  0.29522768
   0.58307666  0.46302513  0.77782935
   0.61928706  0.97280433  0.28585300
   0.57734375  0.97100858  0.75469439
   0.10646193  0.23619998  0.02248411
   0.11233692  0.20914727  0.48691567
   0.08144403  0.73642158 -0.01463422
   0.09071751  0.71803717  0.49702840
   0.58659453  0.21286770  0.03250576
   0.58604414  0.19581298  0.50648458
   0.56526024  0.72209236 -0.00223324
   0.61131662  0.72477169  0.49158091
   0.35453657  0.45486095  0.03406420
   0.32817868  0.44019558  0.53001736
   0.35728771  0.95525849  0.01929757
   0.35099926  0.99362555  0.52055625
   0.84665592  0.46659177 -0.01303567
   0.87530867  0.48570054  0.52100680
   0.83561317  0.95542423  0.01914815
   0.87268355  0.97030880  0.51835647
   0.36224681  0.69466284  0.26481035
   0.33239936  0.71402450  0.76556470
   0.33661726  1.23003347  0.28275003
   0.33394342  1.25623689  0.78286543
   0.84083086  0.71403301  0.27025551
   0.84620769  0.72528619  0.74679230
   0.86139601  1.22586422  0.26210972
   0.83488108  1.24910357  0.75356114
