       N       E                     dE             d eps       ncg     rms          rms(c)
DAV:   1     0.112976879413E+03    0.11298E+03   -0.17572E+04   656   0.825E+02
DAV:   2    -0.756406079816E+02   -0.18862E+03   -0.17879E+03   801   0.152E+02
DAV:   3    -0.865266768302E+02   -0.10886E+02   -0.10568E+02   824   0.336E+01
DAV:   4    -0.867778043341E+02   -0.25113E+00   -0.25007E+00   784   0.583E+00
DAV:   5    -0.867854726110E+02   -0.76683E-02   -0.76647E-02   797   0.892E-01    0.140E+01
DAV:   6    -0.857373771031E+02    0.10481E+01   -0.58504E-01   709   0.238E+00    0.865E+00
DAV:   7    -0.852577612505E+02    0.47962E+00   -0.12582E+00   668   0.365E+00    0.511E-01
DAV:   8    -0.852688600434E+02   -0.11099E-01   -0.58427E-02   712   0.884E-01    0.176E-01
DAV:   9    -0.852712482067E+02   -0.23882E-02   -0.32096E-03   819   0.230E-01    0.159E-01
DAV:  10    -0.852717867572E+02   -0.53855E-03   -0.11271E-03   666   0.126E-01    0.506E-02
DAV:  11    -0.852717894005E+02   -0.26433E-05   -0.27268E-05   724   0.199E-02    0.999E-03
DAV:  12    -0.852717940775E+02   -0.46769E-05   -0.45067E-06   686   0.941E-03    0.437E-03
DAV:  13    -0.852717929265E+02    0.11510E-05   -0.52264E-07   343   0.254E-03    0.435E-04
DAV:  14    -0.852717928812E+02    0.45276E-07   -0.46726E-08   337   0.919E-04
      1 T=   367. E= -.87878611E+02 F= -.88779929E+02 E0= -.88779929E+02  EK= 0.90132E+00 SP= 0.00E+00 SK= 0.00E+00
       N       E                     dE             d eps       ncg     rms          rms(c)
DAV:   1    -0.852503639328E+02    0.21429E-01   -0.55536E-01   668   0.278E+00    0.384E-01
DAV:   2    -0.852526972819E+02   -0.23333E-02   -0.35093E-02   800   0.739E-01    0.163E-01
DAV:   3    -0.852521679007E+02    0.52938E-03   -0.14052E-03   768   0.157E-01    0.831E-02
DAV:   4    -0.852520603688E+02    0.10753E-03   -0.56072E-04   752   0.855E-02    0.259E-02
DAV:   5    -0.852520661271E+02   -0.57583E-05   -0.62444E-05   752   0.318E-02    0.167E-02
DAV:   6    -0.852520680048E+02   -0.18777E-05   -0.39256E-06   568   0.783E-03    0.889E-03
DAV:   7    -0.852520685254E+02   -0.52052E-06   -0.15554E-06   376   0.494E-03
      2 T=   364. E= -.87884401E+02 F= -.88778654E+02 E0= -.88778654E+02  EK= 0.89425E+00 SP= 0.00E+00 SK= 0.00E+00
       N       E                     dE             d eps       ncg     rms          rms(c)
DAV:   1    -0.851987621710E+02    0.53306E-01   -0.55101E-01   676   0.275E+00    0.370E-01
DAV:   2    -0.852010370749E+02   -0.22749E-02   -0.33066E-02   816   0.723E-01    0.158E-01
DAV:   3    -0.852005546491E+02    0.48243E-03   -0.13177E-03   760   0.153E-01    0.806E-02
DAV:   4    -0.852004657555E+02    0.88894E-04   -0.53899E-04   752   0.841E-02    0.245E-02
DAV:   5    -0.852004713854E+02   -0.56300E-05   -0.60517E-05   744   0.313E-02    0.162E-02
DAV:   6    -0.852004730791E+02   -0.16937E-05   -0.36031E-06   552   0.756E-03    0.849E-03
DAV:   7    -0.852004734628E+02   -0.38367E-06   -0.14545E-06   376   0.478E-03
      3 T=   354. E= -.87873585E+02 F= -.88742112E+02 E0= -.88742111E+02  EK= 0.86853E+00 SP= 0.00E+00 SK= 0.00E+00
       N       E                     dE             d eps       ncg     rms          rms(c)
DAV:   1    -0.851173170530E+02    0.83156E-01   -0.50647E-01   666   0.265E+00    0.367E-01
DAV:   2    -0.851191491049E+02   -0.18321E-02   -0.29813E-02   816   0.683E-01    0.170E-01
DAV:   3    -0.851186318393E+02    0.51727E-03   -0.12228E-03   751   0.146E-01    0.785E-02
DAV:   4    -0.851185435951E+02    0.88244E-04   -0.42714E-04   776   0.736E-02    0.285E-02
DAV:   5    -0.851185468670E+02   -0.32719E-05   -0.39792E-05   736   0.251E-02    0.159E-02
DAV:   6    -0.851185492467E+02   -0.23797E-05   -0.36136E-06   552   0.748E-03    0.744E-03
DAV:   7    -0.851185499038E+02   -0.65713E-06   -0.96713E-07   376   0.383E-03
      4 T=   338. E= -.87855545E+02 F= -.88685176E+02 E0= -.88685172E+02  EK= 0.82963E+00 SP= 0.00E+00 SK= 0.00E+00
       N       E                     dE             d eps       ncg     rms          rms(c)
DAV:   1    -0.850117482787E+02    0.10680E+00   -0.45762E-01   664   0.252E+00    0.357E-01
DAV:   2    -0.850132127151E+02   -0.14644E-02   -0.26005E-02   816   0.639E-01    0.172E-01
DAV:   3    -0.850126985873E+02    0.51413E-03   -0.10824E-03   752   0.137E-01    0.745E-02
DAV:   4    -0.850126142317E+02    0.84356E-04   -0.35597E-04   768   0.666E-02    0.293E-02
DAV:   5    -0.850126169441E+02   -0.27125E-05   -0.31753E-05   752   0.224E-02    0.152E-02
DAV:   6    -0.850126195887E+02   -0.26446E-05   -0.34925E-06   544   0.736E-03    0.657E-03
DAV:   7    -0.850126201864E+02   -0.59765E-06   -0.66872E-07   376   0.321E-03
      5 T=   308. E= -.87851324E+02 F= -.88606993E+02 E0= -.88606981E+02  EK= 0.75567E+00 SP= 0.00E+00 SK= 0.00E+00
       N       E                     dE             d eps       ncg     rms          rms(c)
DAV:   1    -0.848962664736E+02    0.11635E+00   -0.38241E-01   658   0.231E+00    0.336E-01
DAV:   2    -0.848971933966E+02   -0.92692E-03   -0.20592E-02   808   0.571E-01    0.170E-01
DAV:   3    -0.848966898563E+02    0.50354E-03   -0.93446E-04   784   0.124E-01    0.667E-02
DAV:   4    -0.848966188214E+02    0.71035E-04   -0.26717E-04   784   0.572E-02    0.297E-02
DAV:   5    -0.848966212277E+02   -0.24063E-05   -0.21222E-05   744   0.182E-02    0.144E-02
DAV:   6    -0.848966241072E+02   -0.28794E-05   -0.30467E-06   520   0.692E-03    0.533E-03
DAV:   7    -0.848966246235E+02   -0.51633E-06   -0.46005E-07   376   0.276E-03
      6 T=   272. E= -.87853511E+02 F= -.88520455E+02 E0= -.88520423E+02  EK= 0.66694E+00 SP= 0.00E+00 SK= 0.00E+00
       N       E                     dE             d eps       ncg     rms          rms(c)
DAV:   1    -0.847820391709E+02    0.11458E+00   -0.31127E-01   656   0.210E+00    0.316E-01
DAV:   2    -0.847823645597E+02   -0.32539E-03   -0.15491E-02   824   0.498E-01    0.166E-01
DAV:   3    -0.847818311007E+02    0.53346E-03   -0.89275E-04   768   0.118E-01    0.560E-02
DAV:   4    -0.847817767655E+02    0.54335E-04   -0.20609E-04   792   0.502E-02    0.300E-02
DAV:   5    -0.847817796183E+02   -0.28528E-05   -0.14628E-05   784   0.150E-02    0.137E-02
DAV:   6    -0.847817825968E+02   -0.29785E-05   -0.23959E-06   480   0.624E-03    0.404E-03
DAV:   7    -0.847817830089E+02   -0.41209E-06   -0.30413E-07   376   0.244E-03
      7 T=   242. E= -.87842851E+02 F= -.88436120E+02 E0= -.88436051E+02  EK= 0.59327E+00 SP= 0.00E+00 SK= 0.00E+00
       N       E                     dE             d eps       ncg     rms          rms(c)
DAV:   1    -0.846813648876E+02    0.10042E+00   -0.25722E-01   656   0.191E+00    0.281E-01
DAV:   2    -0.846814740403E+02   -0.10915E-03   -0.11595E-02   816   0.435E-01    0.151E-01
DAV:   3    -0.846810246647E+02    0.44938E-03   -0.76607E-04   768   0.107E-01    0.479E-02
DAV:   4    -0.846809910841E+02    0.33581E-04   -0.14801E-04   800   0.431E-02    0.278E-02
DAV:   5    -0.846809945648E+02   -0.34806E-05   -0.10064E-05   776   0.125E-02    0.118E-02
DAV:   6    -0.846809971115E+02   -0.25467E-05   -0.15686E-06   392   0.521E-03    0.279E-03
DAV:   7    -0.846809974091E+02   -0.29761E-06   -0.25404E-07   376   0.232E-03
      8 T=   218. E= -.87828199E+02 F= -.88362434E+02 E0= -.88362313E+02  EK= 0.53423E+00 SP= 0.00E+00 SK= 0.00E+00
       N       E                     dE             d eps       ncg     rms          rms(c)
DAV:   1    -0.845988652070E+02    0.82132E-01   -0.21396E-01   656   0.175E+00    0.257E-01
DAV:   2    -0.845987607142E+02    0.10449E-03   -0.86339E-03   832   0.379E-01    0.141E-01
DAV:   3    -0.845983439087E+02    0.41681E-03   -0.72268E-04   736   0.101E-01    0.398E-02
DAV:   4    -0.845983284354E+02    0.15473E-04   -0.10932E-04   824   0.374E-02    0.270E-02
DAV:   5    -0.845983321694E+02   -0.37340E-05   -0.68317E-06   704   0.104E-02    0.101E-02
DAV:   6    -0.845983344390E+02   -0.22696E-05   -0.10927E-06   376   0.440E-03    0.220E-03
DAV:   7    -0.845983346402E+02   -0.20128E-06   -0.20090E-07   360   0.207E-03
      9 T=   198. E= -.87820121E+02 F= -.88305294E+02 E0= -.88305115E+02  EK= 0.48517E+00 SP= 0.00E+00 SK= 0.00E+00
       N       E                     dE             d eps       ncg     rms          rms(c)
DAV:   1    -0.845456260431E+02    0.52708E-01   -0.19297E-01   656   0.166E+00    0.233E-01
DAV:   2    -0.845455689837E+02    0.57059E-04   -0.76622E-03   824   0.361E-01    0.127E-01
DAV:   3    -0.845452087718E+02    0.36021E-03   -0.67515E-04   752   0.994E-02    0.385E-02
DAV:   4    -0.845451985385E+02    0.10233E-04   -0.11820E-04   816   0.387E-02    0.244E-02
DAV:   5    -0.845452019053E+02   -0.33668E-05   -0.59735E-06   688   0.995E-03    0.842E-03
DAV:   6    -0.845452036275E+02   -0.17222E-05   -0.88121E-07   376   0.391E-03    0.197E-03
DAV:   7    -0.845452037990E+02   -0.17156E-06   -0.15298E-07   376   0.176E-03
     10 T=   185. E= -.87819173E+02 F= -.88272892E+02 E0= -.88272664E+02  EK= 0.45372E+00 SP= 0.00E+00 SK= 0.00E+00
       N       E                     dE             d eps       ncg     rms          rms(c)
DAV:   1    -0.845295394973E+02    0.15664E-01   -0.19086E-01   656   0.165E+00    0.211E-01
DAV:   2    -0.845298047620E+02   -0.26526E-03   -0.81880E-03   832   0.375E-01    0.111E-01
DAV:   3    -0.845295466195E+02    0.25814E-03   -0.50154E-04   752   0.909E-02    0.443E-02
DAV:   4    -0.845295314252E+02    0.15194E-04   -0.15570E-04   800   0.439E-02    0.189E-02
DAV:   5    -0.845295339730E+02   -0.25478E-05   -0.11570E-05   744   0.138E-02    0.677E-03
DAV:   6    -0.845295347071E+02   -0.73408E-06   -0.85812E-07   376   0.394E-03
     11 T=   183. E= -.87819936E+02 F= -.88269556E+02 E0= -.88269313E+02  EK= 0.44962E+00 SP= 0.00E+00 SK= 0.00E+00
     12 T=   192. E= -.87805285E+02 F= -.88277371E+02 E0= -.88277371E+02  EK= 0.47209E+00 SP= 0.00E+00 SK= 0.00E+00
     13 T=   204. E= -.87807139E+02 F= -.88308134E+02 E0= -.88308134E+02  EK= 0.50100E+00 SP= 0.00E+00 SK= 0.00E+00
     14 T=   220. E= -.87812694E+02 F= -.88352983E+02 E0= -.88352983E+02  EK= 0.54029E+00 SP= 0.00E+00 SK= 0.00E+00
     15 T=   238. E= -.87816044E+02 F= -.88399701E+02 E0= -.88399701E+02  EK= 0.58366E+00 SP= 0.00E+00 SK= 0.00E+00
     16 T=   255. E= -.87819183E+02 F= -.88445182E+02 E0= -.88445182E+02  EK= 0.62600E+00 SP= 0.00E+00 SK= 0.00E+00
     17 T=   265. E= -.87823290E+02 F= -.88474573E+02 E0= -.88474573E+02  EK= 0.65128E+00 SP= 0.00E+00 SK= 0.00E+00
     18 T=   268. E= -.87838634E+02 F= -.88495834E+02 E0= -.88495834E+02  EK= 0.65720E+00 SP= 0.00E+00 SK= 0.00E+00
     19 T=   266. E= -.87851158E+02 F= -.88505144E+02 E0= -.88505144E+02  EK= 0.65399E+00 SP= 0.00E+00 SK= 0.00E+00
     20 T=   268. E= -.87846365E+02 F= -.88505085E+02 E0= -.88505085E+02  EK= 0.65872E+00 SP= 0.00E+00 SK= 0.00E+00
       N       E                     dE             d eps       ncg     rms          rms(c)
DAV:   1    -0.847503687822E+02   -0.22083E+00   -0.30774E+01   656   0.207E+01
DAV:   2    -0.849524782124E+02   -0.20211E+00   -0.20208E+00   824   0.539E+00
DAV:   3    -0.849560580050E+02   -0.35798E-02   -0.35797E-02   791   0.800E-01
DAV:   4    -0.849561581504E+02   -0.10015E-03   -0.10014E-03   824   0.123E-01    0.209E+00
DAV:   5    -0.848849116113E+02    0.71247E-01   -0.10364E-01   694   0.116E+00    0.112E+00
DAV:   6    -0.848704370826E+02    0.14475E-01   -0.10281E-01   768   0.110E+00    0.299E-01
DAV:   7    -0.848710146961E+02   -0.57761E-03   -0.14150E-02   728   0.461E-01    0.229E-01
DAV:   8    -0.848711056954E+02   -0.90999E-04   -0.69112E-04   808   0.106E-01    0.911E-02
DAV:   9    -0.848710801386E+02    0.25557E-04   -0.16408E-04   768   0.492E-02    0.241E-02
DAV:  10    -0.848710835669E+02   -0.34283E-05   -0.37902E-05   792   0.223E-02    0.132E-02
DAV:  11    -0.848710836019E+02   -0.35018E-07   -0.60334E-06   696   0.961E-03
     21 T=   270. E= -.87843608E+02 F= -.88507624E+02 E0= -.88507601E+02  EK= 0.66402E+00 SP= 0.00E+00 SK= 0.00E+00
     22 T=   266. E= -.87820518E+02 F= -.88473003E+02 E0= -.88473003E+02  EK= 0.65249E+00 SP= 0.00E+00 SK= 0.00E+00
     23 T=   253. E= -.87813735E+02 F= -.88434592E+02 E0= -.88434592E+02  EK= 0.62086E+00 SP= 0.00E+00 SK= 0.00E+00
     24 T=   239. E= -.87795155E+02 F= -.88382536E+02 E0= -.88382536E+02  EK= 0.58738E+00 SP= 0.00E+00 SK= 0.00E+00
     25 T=   220. E= -.87781945E+02 F= -.88323477E+02 E0= -.88323477E+02  EK= 0.54153E+00 SP= 0.00E+00 SK= 0.00E+00
     26 T=   199. E= -.87775701E+02 F= -.88264274E+02 E0= -.88264274E+02  EK= 0.48857E+00 SP= 0.00E+00 SK= 0.00E+00
       N       E                     dE             d eps       ncg     rms          rms(c)
DAV:   1    -0.847044177445E+02    0.16667E+00   -0.13729E+01   659   0.136E+01
DAV:   2    -0.847971886799E+02   -0.92771E-01   -0.92759E-01   840   0.365E+00
DAV:   3    -0.847986616317E+02   -0.14730E-02   -0.14729E-02   792   0.508E-01
DAV:   4    -0.847987016267E+02   -0.39995E-04   -0.39992E-04   840   0.782E-02    0.181E+00
DAV:   5    -0.846687843759E+02    0.12992E+00   -0.15105E-01   727   0.144E+00    0.956E-01
DAV:   6    -0.846329232890E+02    0.35861E-01   -0.18262E-01   760   0.148E+00    0.249E-01
DAV:   7    -0.846346723297E+02   -0.17490E-02   -0.24167E-02   727   0.612E-01    0.247E-01
DAV:   8    -0.846347039656E+02   -0.31636E-04   -0.77525E-04   816   0.106E-01    0.149E-01
DAV:   9    -0.846346647006E+02    0.39265E-04   -0.30612E-04   736   0.694E-02    0.243E-02
DAV:  10    -0.846346718547E+02   -0.71541E-05   -0.55245E-05   768   0.286E-02    0.238E-02
DAV:  11    -0.846346733979E+02   -0.15432E-05   -0.16463E-05   728   0.163E-02    0.627E-03
DAV:  12    -0.846346729677E+02    0.43019E-06   -0.60497E-06   680   0.101E-02
     27 T=   180. E= -.87788317E+02 F= -.88229840E+02 E0= -.88229696E+02  EK= 0.44152E+00 SP= 0.00E+00 SK= 0.00E+00
     28 T=   158. E= -.87780255E+02 F= -.88168855E+02 E0= -.88168855E+02  EK= 0.38860E+00 SP= 0.00E+00 SK= 0.00E+00
     29 T=   147. E= -.87774981E+02 F= -.88135531E+02 E0= -.88135531E+02  EK= 0.36055E+00 SP= 0.00E+00 SK= 0.00E+00
     30 T=   143. E= -.87768821E+02 F= -.88120262E+02 E0= -.88120262E+02  EK= 0.35144E+00 SP= 0.00E+00 SK= 0.00E+00
     31 T=   144. E= -.87771124E+02 F= -.88125474E+02 E0= -.88125474E+02  EK= 0.35435E+00 SP= 0.00E+00 SK= 0.00E+00
     32 T=   152. E= -.87776077E+02 F= -.88150145E+02 E0= -.88150145E+02  EK= 0.37407E+00 SP= 0.00E+00 SK= 0.00E+00
     33 T=   164. E= -.87778498E+02 F= -.88181515E+02 E0= -.88181515E+02  EK= 0.40302E+00 SP= 0.00E+00 SK= 0.00E+00
     34 T=   179. E= -.87779996E+02 F= -.88220641E+02 E0= -.88220641E+02  EK= 0.44065E+00 SP= 0.00E+00 SK= 0.00E+00
     35 T=   199. E= -.87771571E+02 F= -.88260670E+02 E0= -.88260670E+02  EK= 0.48910E+00 SP= 0.00E+00 SK= 0.00E+00
     36 T=   225. E= -.87746366E+02 F= -.88299991E+02 E0= -.88299991E+02  EK= 0.55362E+00 SP= 0.00E+00 SK= 0.00E+00
       N       E                     dE             d eps       ncg     rms          rms(c)
DAV:   1    -0.845138955595E+02    0.12078E+00   -0.21509E+01   656   0.170E+01
DAV:   2    -0.846500300580E+02   -0.13613E+00   -0.13611E+00   832   0.447E+00
DAV:   3    -0.846521930641E+02   -0.21630E-02   -0.21629E-02   784   0.612E-01
DAV:   4    -0.846522701642E+02   -0.77100E-04   -0.77097E-04   824   0.994E-02    0.212E+00
DAV:   5    -0.845647073915E+02    0.87563E-01   -0.98501E-02   728   0.111E+00    0.109E+00
DAV:   6    -0.845405697502E+02    0.24138E-01   -0.10950E-01   784   0.111E+00    0.324E-01
DAV:   7    -0.845407951944E+02   -0.22544E-03   -0.12864E-02   728   0.440E-01    0.255E-01
DAV:   8    -0.845407587713E+02    0.36423E-04   -0.83309E-04   784   0.113E-01    0.125E-01
DAV:   9    -0.845407498051E+02    0.89663E-05   -0.22463E-04   792   0.568E-02    0.388E-02
DAV:  10    -0.845407579406E+02   -0.81355E-05   -0.36934E-05   776   0.224E-02    0.225E-02
DAV:  11    -0.845407574584E+02    0.48221E-06   -0.45716E-06   688   0.842E-03
     37 T=   244. E= -.87712332E+02 F= -.88311812E+02 E0= -.88310886E+02  EK= 0.59948E+00 SP= 0.00E+00 SK= 0.00E+00
     38 T=   252. E= -.87716789E+02 F= -.88336229E+02 E0= -.88336229E+02  EK= 0.61944E+00 SP= 0.00E+00 SK= 0.00E+00
     39 T=   250. E= -.87712888E+02 F= -.88327610E+02 E0= -.88327610E+02  EK= 0.61472E+00 SP= 0.00E+00 SK= 0.00E+00
     40 T=   240. E= -.87715633E+02 F= -.88305250E+02 E0= -.88305250E+02  EK= 0.58962E+00 SP= 0.00E+00 SK= 0.00E+00
     41 T=   237. E= -.87695838E+02 F= -.88276998E+02 E0= -.88276998E+02  EK= 0.58116E+00 SP= 0.00E+00 SK= 0.00E+00
     42 T=   229. E= -.87692633E+02 F= -.88255524E+02 E0= -.88255524E+02  EK= 0.56289E+00 SP= 0.00E+00 SK= 0.00E+00
     43 T=   219. E= -.87705047E+02 F= -.88244013E+02 E0= -.88244013E+02  EK= 0.53897E+00 SP= 0.00E+00 SK= 0.00E+00
     44 T=   215. E= -.87718653E+02 F= -.88245905E+02 E0= -.88245905E+02  EK= 0.52725E+00 SP= 0.00E+00 SK= 0.00E+00
     45 T=   208. E= -.87745011E+02 F= -.88255886E+02 E0= -.88255886E+02  EK= 0.51087E+00 SP= 0.00E+00 SK= 0.00E+00
     46 T=   207. E= -.87772360E+02 F= -.88281070E+02 E0= -.88281070E+02  EK= 0.50871E+00 SP= 0.00E+00 SK= 0.00E+00
       N       E                     dE             d eps       ncg     rms          rms(c)
DAV:   1    -0.847203444913E+02   -0.17959E+00   -0.27297E+01   657   0.194E+01
DAV:   2    -0.848896129430E+02   -0.16927E+00   -0.16919E+00   816   0.504E+00
DAV:   3    -0.848924818045E+02   -0.28689E-02   -0.28681E-02   776   0.718E-01
DAV:   4    -0.848925817046E+02   -0.99900E-04   -0.99897E-04   824   0.120E-01    0.243E+00
DAV:   5    -0.846722174074E+02    0.22036E+00   -0.27915E-01   704   0.195E+00    0.129E+00
DAV:   6    -0.846145867384E+02    0.57631E-01   -0.30210E-01   792   0.189E+00    0.381E-01
DAV:   7    -0.846169693740E+02   -0.23826E-02   -0.37269E-02   728   0.753E-01    0.333E-01
DAV:   8    -0.846170434875E+02   -0.74113E-04   -0.14646E-03   816   0.147E-01    0.176E-01
DAV:   9    -0.846170073481E+02    0.36139E-04   -0.43853E-04   728   0.843E-02    0.354E-02
DAV:  10    -0.846170242411E+02   -0.16893E-04   -0.86977E-05   800   0.352E-02    0.210E-02
DAV:  11    -0.846170262625E+02   -0.20214E-05   -0.16090E-05   712   0.160E-02    0.729E-03
DAV:  12    -0.846170260381E+02    0.22443E-06   -0.51101E-06   688   0.947E-03
     47 T=   213. E= -.87798278E+02 F= -.88320944E+02 E0= -.88320917E+02  EK= 0.52267E+00 SP= 0.00E+00 SK= 0.00E+00
     48 T=   229. E= -.87788851E+02 F= -.88352486E+02 E0= -.88352486E+02  EK= 0.56364E+00 SP= 0.00E+00 SK= 0.00E+00
     49 T=   245. E= -.87790060E+02 F= -.88392535E+02 E0= -.88392535E+02  EK= 0.60247E+00 SP= 0.00E+00 SK= 0.00E+00
     50 T=   262. E= -.87788681E+02 F= -.88432749E+02 E0= -.88432749E+02  EK= 0.64407E+00 SP= 0.00E+00 SK= 0.00E+00
     51 T=   278. E= -.87776127E+02 F= -.88459937E+02 E0= -.88459937E+02  EK= 0.68381E+00 SP= 0.00E+00 SK= 0.00E+00
     52 T=   296. E= -.87741654E+02 F= -.88469569E+02 E0= -.88469569E+02  EK= 0.72791E+00 SP= 0.00E+00 SK= 0.00E+00
     53 T=   303. E= -.87716084E+02 F= -.88459993E+02 E0= -.88459993E+02  EK= 0.74391E+00 SP= 0.00E+00 SK= 0.00E+00
     54 T=   288. E= -.87726606E+02 F= -.88432783E+02 E0= -.88432783E+02  EK= 0.70618E+00 SP= 0.00E+00 SK= 0.00E+00
     55 T=   270. E= -.87737538E+02 F= -.88400169E+02 E0= -.88400169E+02  EK= 0.66263E+00 SP= 0.00E+00 SK= 0.00E+00
     56 T=   259. E= -.87726844E+02 F= -.88362766E+02 E0= -.88362766E+02  EK= 0.63592E+00 SP= 0.00E+00 SK= 0.00E+00
       N       E                     dE             d eps       ncg     rms          rms(c)
DAV:   1    -0.846492833694E+02   -0.32257E-01   -0.37727E+01   656   0.228E+01
DAV:   2    -0.848976877132E+02   -0.24840E+00   -0.24833E+00   808   0.602E+00
DAV:   3    -0.849024531198E+02   -0.47654E-02   -0.47651E-02   816   0.900E-01
DAV:   4    -0.849025726874E+02   -0.11957E-03   -0.11956E-03   808   0.135E-01    0.244E+00
DAV:   5    -0.847904897630E+02    0.11208E+00   -0.13581E-01   720   0.135E+00    0.131E+00
DAV:   6    -0.847625214946E+02    0.27968E-01   -0.16973E-01   776   0.142E+00    0.340E-01
DAV:   7    -0.847634163438E+02   -0.89485E-03   -0.24057E-02   720   0.605E-01    0.277E-01
DAV:   8    -0.847636091391E+02   -0.19280E-03   -0.12480E-03   800   0.144E-01    0.113E-01
DAV:   9    -0.847635096035E+02    0.99536E-04   -0.45410E-04   776   0.841E-02    0.280E-02
DAV:  10    -0.847635170685E+02   -0.74649E-05   -0.90286E-05   808   0.335E-02    0.235E-02
DAV:  11    -0.847635165161E+02    0.55232E-06   -0.12115E-05   744   0.137E-02    0.926E-03
DAV:  12    -0.847635165106E+02    0.55602E-08   -0.29088E-06   504   0.718E-03
     57 T=   253. E= -.87712470E+02 F= -.88333657E+02 E0= -.88333583E+02  EK= 0.62119E+00 SP= 0.00E+00 SK= 0.00E+00
     58 T=   246. E= -.87680556E+02 F= -.88284595E+02 E0= -.88284595E+02  EK= 0.60404E+00 SP= 0.00E+00 SK= 0.00E+00
     59 T=   238. E= -.87671536E+02 F= -.88254872E+02 E0= -.88254872E+02  EK= 0.58334E+00 SP= 0.00E+00 SK= 0.00E+00
     60 T=   230. E= -.87676181E+02 F= -.88240004E+02 E0= -.88240004E+02  EK= 0.56382E+00 SP= 0.00E+00 SK= 0.00E+00
     61 T=   232. E= -.87664887E+02 F= -.88235085E+02 E0= -.88235085E+02  EK= 0.57020E+00 SP= 0.00E+00 SK= 0.00E+00
     62 T=   238. E= -.87658485E+02 F= -.88242695E+02 E0= -.88242695E+02  EK= 0.58421E+00 SP= 0.00E+00 SK= 0.00E+00
     63 T=   241. E= -.87665730E+02 F= -.88256554E+02 E0= -.88256554E+02  EK= 0.59082E+00 SP= 0.00E+00 SK= 0.00E+00
     64 T=   251. E= -.87663633E+02 F= -.88280915E+02 E0= -.88280915E+02  EK= 0.61728E+00 SP= 0.00E+00 SK= 0.00E+00
     65 T=   263. E= -.87666271E+02 F= -.88313156E+02 E0= -.88313156E+02  EK= 0.64688E+00 SP= 0.00E+00 SK= 0.00E+00
     66 T=   279. E= -.87665766E+02 F= -.88350224E+02 E0= -.88350224E+02  EK= 0.68446E+00 SP= 0.00E+00 SK= 0.00E+00
       N       E                     dE             d eps       ncg     rms          rms(c)
DAV:   1    -0.846531064289E+02    0.11041E+00   -0.26136E+01   656   0.192E+01
DAV:   2    -0.848011609417E+02   -0.14805E+00   -0.14801E+00   824   0.471E+00
DAV:   3    -0.848037460136E+02   -0.25851E-02   -0.25849E-02   792   0.662E-01
DAV:   4    -0.848038287486E+02   -0.82735E-04   -0.82731E-04   832   0.106E-01    0.217E+00
DAV:   5    -0.847212278390E+02    0.82601E-01   -0.12356E-01   678   0.124E+00    0.117E+00
DAV:   6    -0.847011496311E+02    0.20078E-01   -0.99463E-02   784   0.108E+00    0.364E-01
DAV:   7    -0.847014025143E+02   -0.25288E-03   -0.11679E-02   728   0.414E-01    0.259E-01
DAV:   8    -0.847014791950E+02   -0.76681E-04   -0.93247E-04   768   0.119E-01    0.109E-01
DAV:   9    -0.847014833687E+02   -0.41737E-05   -0.15432E-04   728   0.488E-02    0.333E-02
DAV:  10    -0.847014940626E+02   -0.10694E-04   -0.31380E-05   784   0.212E-02    0.152E-02
DAV:  11    -0.847014930130E+02    0.10496E-05   -0.60627E-06   704   0.976E-03    0.623E-03
DAV:  12    -0.847014930804E+02   -0.67404E-07   -0.10892E-06   376   0.446E-03
     67 T=   304. E= -.87664644E+02 F= -.88411664E+02 E0= -.88411653E+02  EK= 0.74702E+00 SP= 0.00E+00 SK= 0.00E+00
     68 T=   326. E= -.87643033E+02 F= -.88442651E+02 E0= -.88442651E+02  EK= 0.79962E+00 SP= 0.00E+00 SK= 0.00E+00
     69 T=   341. E= -.87640975E+02 F= -.88478642E+02 E0= -.88478642E+02  EK= 0.83767E+00 SP= 0.00E+00 SK= 0.00E+00
     70 T=   362. E= -.87613456E+02 F= -.88502089E+02 E0= -.88502089E+02  EK= 0.88863E+00 SP= 0.00E+00 SK= 0.00E+00
     71 T=   375. E= -.87584112E+02 F= -.88505982E+02 E0= -.88505982E+02  EK= 0.92187E+00 SP= 0.00E+00 SK= 0.00E+00
     72 T=   367. E= -.87584509E+02 F= -.88485091E+02 E0= -.88485091E+02  EK= 0.90058E+00 SP= 0.00E+00 SK= 0.00E+00
     73 T=   345. E= -.87600383E+02 F= -.88446466E+02 E0= -.88446466E+02  EK= 0.84608E+00 SP= 0.00E+00 SK= 0.00E+00
     74 T=   314. E= -.87617293E+02 F= -.88388207E+02 E0= -.88388207E+02  EK= 0.77091E+00 SP= 0.00E+00 SK= 0.00E+00
     75 T=   289. E= -.87604973E+02 F= -.88315230E+02 E0= -.88315230E+02  EK= 0.71026E+00 SP= 0.00E+00 SK= 0.00E+00
     76 T=   258. E= -.87601864E+02 F= -.88236150E+02 E0= -.88236150E+02  EK= 0.63429E+00 SP= 0.00E+00 SK= 0.00E+00
       N       E                     dE             d eps       ncg     rms          rms(c)
DAV:   1    -0.845587464468E+02    0.14275E+00   -0.46458E+01   656   0.249E+01
DAV:   2    -0.848903939061E+02   -0.33165E+00   -0.33153E+00   832   0.683E+00
DAV:   3    -0.848963001277E+02   -0.59062E-02   -0.59040E-02   768   0.103E+00
DAV:   4    -0.848965073494E+02   -0.20722E-03   -0.20715E-03   840   0.171E-01    0.290E+00
DAV:   5    -0.846755461961E+02    0.22096E+00   -0.26070E-01   720   0.189E+00    0.152E+00
DAV:   6    -0.846188631914E+02    0.56683E-01   -0.32766E-01   768   0.198E+00    0.402E-01
DAV:   7    -0.846213275135E+02   -0.24643E-02   -0.43916E-02   736   0.825E-01    0.365E-01
DAV:   8    -0.846215131091E+02   -0.18560E-03   -0.17109E-03   800   0.165E-01    0.175E-01
DAV:   9    -0.846213944923E+02    0.11862E-03   -0.69302E-04   752   0.105E-01    0.324E-02
DAV:  10    -0.846214090876E+02   -0.14595E-04   -0.13702E-04   784   0.423E-02    0.343E-02
DAV:  11    -0.846214096647E+02   -0.57707E-06   -0.25610E-05   736   0.202E-02    0.102E-02
DAV:  12    -0.846214091182E+02    0.54650E-06   -0.84352E-06   704   0.120E-02
     77 T=   225. E= -.87620915E+02 F= -.88174455E+02 E0= -.88174126E+02  EK= 0.55354E+00 SP= 0.00E+00 SK= 0.00E+00
     78 T=   204. E= -.87614063E+02 F= -.88115043E+02 E0= -.88115043E+02  EK= 0.50098E+00 SP= 0.00E+00 SK= 0.00E+00
     79 T=   199. E= -.87595826E+02 F= -.88083644E+02 E0= -.88083644E+02  EK= 0.48782E+00 SP= 0.00E+00 SK= 0.00E+00
     80 T=   211. E= -.87562278E+02 F= -.88081330E+02 E0= -.88081330E+02  EK= 0.51905E+00 SP= 0.00E+00 SK= 0.00E+00
     81 T=   235. E= -.87528628E+02 F= -.88104823E+02 E0= -.88104823E+02  EK= 0.57620E+00 SP= 0.00E+00 SK= 0.00E+00
     82 T=   258. E= -.87514093E+02 F= -.88146656E+02 E0= -.88146656E+02  EK= 0.63256E+00 SP= 0.00E+00 SK= 0.00E+00
     83 T=   285. E= -.87500400E+02 F= -.88200667E+02 E0= -.88200667E+02  EK= 0.70027E+00 SP= 0.00E+00 SK= 0.00E+00
     84 T=   322. E= -.87469809E+02 F= -.88261232E+02 E0= -.88261232E+02  EK= 0.79142E+00 SP= 0.00E+00 SK= 0.00E+00
     85 T=   355. E= -.87448114E+02 F= -.88318886E+02 E0= -.88318886E+02  EK= 0.87077E+00 SP= 0.00E+00 SK= 0.00E+00
     86 T=   380. E= -.87439192E+02 F= -.88371613E+02 E0= -.88371613E+02  EK= 0.93242E+00 SP= 0.00E+00 SK= 0.00E+00
     87 T=   405. E= -.87417510E+02 F= -.88411605E+02 E0= -.88411605E+02  EK= 0.99409E+00 SP= 0.00E+00 SK= 0.00E+00
     88 T=   409. E= -.87434922E+02 F= -.88438986E+02 E0= -.88438986E+02  EK= 0.10041E+01 SP= 0.00E+00 SK= 0.00E+00
     89 T=   395. E= -.87488122E+02 F= -.88457438E+02 E0= -.88457438E+02  EK= 0.96932E+00 SP= 0.00E+00 SK= 0.00E+00
     90 T=   387. E= -.87517925E+02 F= -.88468893E+02 E0= -.88468893E+02  EK= 0.95097E+00 SP= 0.00E+00 SK= 0.00E+00
     91 T=   392. E= -.87507896E+02 F= -.88470556E+02 E0= -.88470556E+02  EK= 0.96266E+00 SP= 0.00E+00 SK= 0.00E+00
     92 T=   393. E= -.87488938E+02 F= -.88453723E+02 E0= -.88453723E+02  EK= 0.96479E+00 SP= 0.00E+00 SK= 0.00E+00
     93 T=   379. E= -.87486965E+02 F= -.88417685E+02 E0= -.88417685E+02  EK= 0.93072E+00 SP= 0.00E+00 SK= 0.00E+00
     94 T=   372. E= -.87450333E+02 F= -.88363490E+02 E0= -.88363490E+02  EK= 0.91316E+00 SP= 0.00E+00 SK= 0.00E+00
     95 T=   357. E= -.87418085E+02 F= -.88294734E+02 E0= -.88294734E+02  EK= 0.87665E+00 SP= 0.00E+00 SK= 0.00E+00
     96 T=   315. E= -.87444612E+02 F= -.88217675E+02 E0= -.88217675E+02  EK= 0.77306E+00 SP= 0.00E+00 SK= 0.00E+00
     97 T=   290. E= -.87431273E+02 F= -.88143118E+02 E0= -.88143118E+02  EK= 0.71185E+00 SP= 0.00E+00 SK= 0.00E+00
     98 T=   278. E= -.87402113E+02 F= -.88084465E+02 E0= -.88084465E+02  EK= 0.68235E+00 SP= 0.00E+00 SK= 0.00E+00
     99 T=   268. E= -.87393188E+02 F= -.88051958E+02 E0= -.88051958E+02  EK= 0.65877E+00 SP= 0.00E+00 SK= 0.00E+00
    100 T=   275. E= -.87383423E+02 F= -.88059538E+02 E0= -.88059538E+02  EK= 0.67612E+00 SP= 0.00E+00 SK= 0.00E+00
    101 T=   292. E= -.87376770E+02 F= -.88094120E+02 E0= -.88094120E+02  EK= 0.71735E+00 SP= 0.00E+00 SK= 0.00E+00
    102 T=   333. E= -.87332417E+02 F= -.88150980E+02 E0= -.88150980E+02  EK= 0.81856E+00 SP= 0.00E+00 SK= 0.00E+00
    103 T=   371. E= -.87317805E+02 F= -.88228852E+02 E0= -.88228852E+02  EK= 0.91105E+00 SP= 0.00E+00 SK= 0.00E+00
    104 T=   406. E= -.87312659E+02 F= -.88308570E+02 E0= -.88308570E+02  EK= 0.99591E+00 SP= 0.00E+00 SK= 0.00E+00
    105 T=   437. E= -.87303859E+02 F= -.88377222E+02 E0= -.88377222E+02  EK= 0.10734E+01 SP= 0.00E+00 SK= 0.00E+00
    106 T=   450. E= -.87319048E+02 F= -.88425285E+02 E0= -.88425285E+02  EK= 0.11062E+01 SP= 0.00E+00 SK= 0.00E+00
    107 T=   461. E= -.87313096E+02 F= -.88446332E+02 E0= -.88446332E+02  EK= 0.11332E+01 SP= 0.00E+00 SK= 0.00E+00
    108 T=   455. E= -.87311884E+02 F= -.88428684E+02 E0= -.88428684E+02  EK= 0.11168E+01 SP= 0.00E+00 SK= 0.00E+00
    109 T=   430. E= -.87321775E+02 F= -.88377431E+02 E0= -.88377431E+02  EK= 0.10557E+01 SP= 0.00E+00 SK= 0.00E+00
    110 T=   404. E= -.87310889E+02 F= -.88303533E+02 E0= -.88303533E+02  EK= 0.99264E+00 SP= 0.00E+00 SK= 0.00E+00
    111 T=   376. E= -.87292129E+02 F= -.88216441E+02 E0= -.88216441E+02  EK= 0.92431E+00 SP= 0.00E+00 SK= 0.00E+00
    112 T=   332. E= -.87316904E+02 F= -.88132906E+02 E0= -.88132906E+02  EK= 0.81600E+00 SP= 0.00E+00 SK= 0.00E+00
    113 T=   292. E= -.87347998E+02 F= -.88065977E+02 E0= -.88065977E+02  EK= 0.71798E+00 SP= 0.00E+00 SK= 0.00E+00
       N       E                     dE             d eps       ncg     rms          rms(c)
DAV:   1    -0.841284999859E+02    0.49291E+00   -0.14875E+02   656   0.462E+01
DAV:   2    -0.847542280348E+02   -0.62573E+00   -0.62330E+00   840   0.992E+00
DAV:   3    -0.847633604001E+02   -0.91324E-02   -0.91301E-02   776   0.132E+00
DAV:   4    -0.847636323217E+02   -0.27192E-03   -0.27189E-03   848   0.207E-01    0.505E+00
DAV:   5    -0.843298035075E+02    0.43383E+00   -0.47156E-01   751   0.241E+00    0.282E+00
DAV:   6    -0.842064049469E+02    0.12340E+00   -0.62121E-01   792   0.273E+00    0.736E-01
DAV:   7    -0.842094055397E+02   -0.30006E-02   -0.68821E-02   719   0.107E+00    0.489E-01
DAV:   8    -0.842098662231E+02   -0.46068E-03   -0.23192E-03   792   0.205E-01    0.243E-01
DAV:   9    -0.842098604715E+02    0.57516E-05   -0.96277E-04   750   0.121E-01    0.482E-02
DAV:  10    -0.842098843799E+02   -0.23908E-04   -0.14557E-04   768   0.445E-02    0.316E-02
DAV:  11    -0.842098811582E+02    0.32218E-05   -0.21226E-05   728   0.184E-02    0.111E-02
DAV:  12    -0.842098818766E+02   -0.71846E-06   -0.34322E-06   528   0.762E-03
    114 T=   277. E= -.87306823E+02 F= -.87986517E+02 E0= -.87982098E+02  EK= 0.67969E+00 SP= 0.00E+00 SK= 0.00E+00
    115 T=   276. E= -.87313296E+02 F= -.87990411E+02 E0= -.87990411E+02  EK= 0.67711E+00 SP= 0.00E+00 SK= 0.00E+00
    116 T=   283. E= -.87294043E+02 F= -.87989520E+02 E0= -.87989520E+02  EK= 0.69548E+00 SP= 0.00E+00 SK= 0.00E+00
    117 T=   287. E= -.87295956E+02 F= -.87999682E+02 E0= -.87999682E+02  EK= 0.70373E+00 SP= 0.00E+00 SK= 0.00E+00
    118 T=   285. E= -.87310745E+02 F= -.88009731E+02 E0= -.88009731E+02  EK= 0.69899E+00 SP= 0.00E+00 SK= 0.00E+00
    119 T=   294. E= -.87302537E+02 F= -.88023616E+02 E0= -.88023616E+02  EK= 0.72108E+00 SP= 0.00E+00 SK= 0.00E+00
    120 T=   298. E= -.87302882E+02 F= -.88035263E+02 E0= -.88035263E+02  EK= 0.73238E+00 SP= 0.00E+00 SK= 0.00E+00
    121 T=   295. E= -.87318424E+02 F= -.88042886E+02 E0= -.88042886E+02  EK= 0.72446E+00 SP= 0.00E+00 SK= 0.00E+00
    122 T=   301. E= -.87317199E+02 F= -.88055597E+02 E0= -.88055597E+02  EK= 0.73840E+00 SP= 0.00E+00 SK= 0.00E+00
    123 T=   317. E= -.87294182E+02 F= -.88073826E+02 E0= -.88073826E+02  EK= 0.77964E+00 SP= 0.00E+00 SK= 0.00E+00
       N       E                     dE             d eps       ncg     rms          rms(c)
DAV:   1    -0.846516607391E+02   -0.44178E+00   -0.35632E+01   658   0.219E+01
DAV:   2    -0.849037719164E+02   -0.25211E+00   -0.25205E+00   824   0.592E+00
DAV:   3    -0.849083986358E+02   -0.46267E-02   -0.46264E-02   776   0.902E-01
DAV:   4    -0.849085671607E+02   -0.16852E-03   -0.16852E-03   832   0.150E-01    0.318E+00
DAV:   5    -0.846460540765E+02    0.26251E+00   -0.29137E-01   703   0.194E+00    0.164E+00
DAV:   6    -0.845665653645E+02    0.79489E-01   -0.34129E-01   752   0.199E+00    0.442E-01
DAV:   7    -0.845688462513E+02   -0.22809E-02   -0.39290E-02   743   0.783E-01    0.383E-01
DAV:   8    -0.845687616623E+02    0.84589E-04   -0.17178E-03   800   0.156E-01    0.206E-01
DAV:   9    -0.845687047284E+02    0.56934E-04   -0.51742E-04   703   0.907E-02    0.390E-02
DAV:  10    -0.845687168893E+02   -0.12161E-04   -0.90302E-05   792   0.360E-02    0.313E-02
DAV:  11    -0.845687172970E+02   -0.40771E-06   -0.21778E-05   728   0.183E-02    0.931E-03
DAV:  12    -0.845687170561E+02    0.24092E-06   -0.56833E-06   680   0.992E-03
    124 T=   340. E= -.87272885E+02 F= -.88107279E+02 E0= -.88106579E+02  EK= 0.83439E+00 SP= 0.00E+00 SK= 0.00E+00
    125 T=   365. E= -.87240398E+02 F= -.88137123E+02 E0= -.88137123E+02  EK= 0.89673E+00 SP= 0.00E+00 SK= 0.00E+00
    126 T=   375. E= -.87241220E+02 F= -.88162100E+02 E0= -.88162100E+02  EK= 0.92088E+00 SP= 0.00E+00 SK= 0.00E+00
    127 T=   378. E= -.87249314E+02 F= -.88177358E+02 E0= -.88177358E+02  EK= 0.92804E+00 SP= 0.00E+00 SK= 0.00E+00
    128 T=   393. E= -.87220029E+02 F= -.88184336E+02 E0= -.88184336E+02  EK= 0.96431E+00 SP= 0.00E+00 SK= 0.00E+00
    129 T=   390. E= -.87214837E+02 F= -.88172711E+02 E0= -.88172711E+02  EK= 0.95787E+00 SP= 0.00E+00 SK= 0.00E+00
    130 T=   375. E= -.87214341E+02 F= -.88136543E+02 E0= -.88136543E+02  EK= 0.92220E+00 SP= 0.00E+00 SK= 0.00E+00
    131 T=   355. E= -.87206877E+02 F= -.88079602E+02 E0= -.88079602E+02  EK= 0.87272E+00 SP= 0.00E+00 SK= 0.00E+00
    132 T=   323. E= -.87228472E+02 F= -.88021298E+02 E0= -.88021298E+02  EK= 0.79283E+00 SP= 0.00E+00 SK= 0.00E+00
    133 T=   291. E= -.87251778E+02 F= -.87965565E+02 E0= -.87965565E+02  EK= 0.71379E+00 SP= 0.00E+00 SK= 0.00E+00
       N       E                     dE             d eps       ncg     rms          rms(c)
DAV:   1    -0.842305932810E+02    0.33812E+00   -0.45021E+01   696   0.245E+01
DAV:   2    -0.845364643435E+02   -0.30587E+00   -0.30578E+00   822   0.659E+00
DAV:   3    -0.845413171088E+02   -0.48528E-02   -0.48522E-02   768   0.947E-01
DAV:   4    -0.845414698843E+02   -0.15278E-03   -0.15275E-03   832   0.147E-01    0.336E+00
DAV:   5    -0.842437850305E+02    0.29768E+00   -0.31025E-01   743   0.205E+00    0.174E+00
DAV:   6    -0.841569176285E+02    0.86867E-01   -0.41248E-01   776   0.222E+00    0.462E-01
DAV:   7    -0.841596820996E+02   -0.27645E-02   -0.51575E-02   736   0.922E-01    0.406E-01
DAV:   8    -0.841598835695E+02   -0.20147E-03   -0.25993E-03   784   0.205E-01    0.207E-01
DAV:   9    -0.841596284397E+02    0.25513E-03   -0.12707E-03   728   0.144E-01    0.825E-02
DAV:  10    -0.841596513534E+02   -0.22914E-04   -0.23351E-04   824   0.527E-02    0.534E-02
DAV:  11    -0.841596514196E+02   -0.66153E-07   -0.35615E-05   744   0.232E-02    0.199E-02
DAV:  12    -0.841596510856E+02    0.33394E-06   -0.11389E-05   728   0.141E-02    0.649E-03
DAV:  13    -0.841596508277E+02    0.25795E-06   -0.11182E-06   376   0.443E-03
    134 T=   255. E= -.87305868E+02 F= -.87932037E+02 E0= -.87931881E+02  EK= 0.62617E+00 SP= 0.00E+00 SK= 0.00E+00
    135 T=   240. E= -.87335323E+02 F= -.87925315E+02 E0= -.87925315E+02  EK= 0.58999E+00 SP= 0.00E+00 SK= 0.00E+00
    136 T=   243. E= -.87360868E+02 F= -.87957377E+02 E0= -.87957377E+02  EK= 0.59651E+00 SP= 0.00E+00 SK= 0.00E+00
    137 T=   274. E= -.87358699E+02 F= -.88031036E+02 E0= -.88031036E+02  EK= 0.67234E+00 SP= 0.00E+00 SK= 0.00E+00
    138 T=   318. E= -.87339179E+02 F= -.88120922E+02 E0= -.88120922E+02  EK= 0.78174E+00 SP= 0.00E+00 SK= 0.00E+00
    139 T=   349. E= -.87345257E+02 F= -.88202646E+02 E0= -.88202646E+02  EK= 0.85739E+00 SP= 0.00E+00 SK= 0.00E+00
    140 T=   380. E= -.87329374E+02 F= -.88262111E+02 E0= -.88262111E+02  EK= 0.93274E+00 SP= 0.00E+00 SK= 0.00E+00
    141 T=   404. E= -.87291909E+02 F= -.88284552E+02 E0= -.88284552E+02  EK= 0.99264E+00 SP= 0.00E+00 SK= 0.00E+00
    142 T=   400. E= -.87284142E+02 F= -.88266692E+02 E0= -.88266692E+02  EK= 0.98255E+00 SP= 0.00E+00 SK= 0.00E+00
    143 T=   378. E= -.87287581E+02 F= -.88216715E+02 E0= -.88216715E+02  EK= 0.92913E+00 SP= 0.00E+00 SK= 0.00E+00
       N       E                     dE             d eps       ncg     rms          rms(c)
DAV:   1    -0.845582340162E+02   -0.39858E+00   -0.44485E+01   656   0.243E+01
DAV:   2    -0.849032944256E+02   -0.34506E+00   -0.34495E+00   832   0.685E+00
DAV:   3    -0.849095521784E+02   -0.62578E-02   -0.62573E-02   792   0.105E+00
DAV:   4    -0.849097542892E+02   -0.20211E-03   -0.20210E-03   832   0.168E-01    0.323E+00
DAV:   5    -0.846727805453E+02    0.23697E+00   -0.28516E-01   686   0.193E+00    0.167E+00
DAV:   6    -0.846060160330E+02    0.66765E-01   -0.31179E-01   760   0.188E+00    0.470E-01
DAV:   7    -0.846073872690E+02   -0.13712E-02   -0.36937E-02   735   0.751E-01    0.398E-01
DAV:   8    -0.846072068376E+02    0.18043E-03   -0.22353E-03   800   0.176E-01    0.196E-01
DAV:   9    -0.846071350480E+02    0.71790E-04   -0.50628E-04   734   0.879E-02    0.504E-02
DAV:  10    -0.846071471511E+02   -0.12103E-04   -0.10266E-04   792   0.375E-02    0.333E-02
DAV:  11    -0.846071464967E+02    0.65443E-06   -0.22176E-05   736   0.185E-02    0.116E-02
DAV:  12    -0.846071467188E+02   -0.22219E-06   -0.50523E-06   688   0.928E-03
    144 T=   345. E= -.87275306E+02 F= -.88123125E+02 E0= -.88122216E+02  EK= 0.84782E+00 SP= 0.00E+00 SK= 0.00E+00
    145 T=   299. E= -.87330139E+02 F= -.88063618E+02 E0= -.88063618E+02  EK= 0.73348E+00 SP= 0.00E+00 SK= 0.00E+00
    146 T=   272. E= -.87348704E+02 F= -.88015685E+02 E0= -.88015685E+02  EK= 0.66698E+00 SP= 0.00E+00 SK= 0.00E+00
    147 T=   267. E= -.87336238E+02 F= -.87992619E+02 E0= -.87992619E+02  EK= 0.65638E+00 SP= 0.00E+00 SK= 0.00E+00
    148 T=   278. E= -.87320112E+02 F= -.88003652E+02 E0= -.88003652E+02  EK= 0.68354E+00 SP= 0.00E+00 SK= 0.00E+00
    149 T=   298. E= -.87295460E+02 F= -.88028533E+02 E0= -.88028533E+02  EK= 0.73307E+00 SP= 0.00E+00 SK= 0.00E+00
    150 T=   309. E= -.87312279E+02 F= -.88070181E+02 E0= -.88070181E+02  EK= 0.75790E+00 SP= 0.00E+00 SK= 0.00E+00
    151 T=   307. E= -.87363137E+02 F= -.88117881E+02 E0= -.88117881E+02  EK= 0.75474E+00 SP= 0.00E+00 SK= 0.00E+00
    152 T=   319. E= -.87389105E+02 F= -.88171530E+02 E0= -.88171530E+02  EK= 0.78242E+00 SP= 0.00E+00 SK= 0.00E+00
    153 T=   349. E= -.87372779E+02 F= -.88230080E+02 E0= -.88230080E+02  EK= 0.85730E+00 SP= 0.00E+00 SK= 0.00E+00
    154 T=   367. E= -.87386315E+02 F= -.88288277E+02 E0= -.88288277E+02  EK= 0.90196E+00 SP= 0.00E+00 SK= 0.00E+00
    155 T=   381. E= -.87411421E+02 F= -.88348254E+02 E0= -.88348254E+02  EK= 0.93683E+00 SP= 0.00E+00 SK= 0.00E+00
    156 T=   402. E= -.87413888E+02 F= -.88402278E+02 E0= -.88402278E+02  EK= 0.98839E+00 SP= 0.00E+00 SK= 0.00E+00
    157 T=   420. E= -.87417501E+02 F= -.88449592E+02 E0= -.88449592E+02  EK= 0.10321E+01 SP= 0.00E+00 SK= 0.00E+00
    158 T=   450. E= -.87392268E+02 F= -.88496706E+02 E0= -.88496706E+02  EK= 0.11044E+01 SP= 0.00E+00 SK= 0.00E+00
    159 T=   466. E= -.87391375E+02 F= -.88536883E+02 E0= -.88536883E+02  EK= 0.11455E+01 SP= 0.00E+00 SK= 0.00E+00
    160 T=   474. E= -.87395626E+02 F= -.88559017E+02 E0= -.88559017E+02  EK= 0.11634E+01 SP= 0.00E+00 SK= 0.00E+00
    161 T=   493. E= -.87355442E+02 F= -.88565967E+02 E0= -.88565967E+02  EK= 0.12105E+01 SP= 0.00E+00 SK= 0.00E+00
    162 T=   498. E= -.87326282E+02 F= -.88550510E+02 E0= -.88550510E+02  EK= 0.12242E+01 SP= 0.00E+00 SK= 0.00E+00
    163 T=   482. E= -.87319662E+02 F= -.88503587E+02 E0= -.88503587E+02  EK= 0.11839E+01 SP= 0.00E+00 SK= 0.00E+00
    164 T=   445. E= -.87334956E+02 F= -.88427790E+02 E0= -.88427790E+02  EK= 0.10928E+01 SP= 0.00E+00 SK= 0.00E+00
    165 T=   410. E= -.87335293E+02 F= -.88341481E+02 E0= -.88341481E+02  EK= 0.10062E+01 SP= 0.00E+00 SK= 0.00E+00
    166 T=   375. E= -.87325394E+02 F= -.88247405E+02 E0= -.88247405E+02  EK= 0.92201E+00 SP= 0.00E+00 SK= 0.00E+00
    167 T=   337. E= -.87334652E+02 F= -.88161533E+02 E0= -.88161533E+02  EK= 0.82688E+00 SP= 0.00E+00 SK= 0.00E+00
    168 T=   311. E= -.87331394E+02 F= -.88094614E+02 E0= -.88094614E+02  EK= 0.76322E+00 SP= 0.00E+00 SK= 0.00E+00
    169 T=   299. E= -.87313597E+02 F= -.88047996E+02 E0= -.88047996E+02  EK= 0.73440E+00 SP= 0.00E+00 SK= 0.00E+00
    170 T=   296. E= -.87304237E+02 F= -.88032083E+02 E0= -.88032083E+02  EK= 0.72785E+00 SP= 0.00E+00 SK= 0.00E+00
    171 T=   307. E= -.87289746E+02 F= -.88043334E+02 E0= -.88043334E+02  EK= 0.75359E+00 SP= 0.00E+00 SK= 0.00E+00
    172 T=   320. E= -.87287406E+02 F= -.88074033E+02 E0= -.88074033E+02  EK= 0.78663E+00 SP= 0.00E+00 SK= 0.00E+00
    173 T=   341. E= -.87284287E+02 F= -.88120812E+02 E0= -.88120812E+02  EK= 0.83652E+00 SP= 0.00E+00 SK= 0.00E+00
    174 T=   375. E= -.87262988E+02 F= -.88183026E+02 E0= -.88183026E+02  EK= 0.92004E+00 SP= 0.00E+00 SK= 0.00E+00
    175 T=   399. E= -.87267611E+02 F= -.88246869E+02 E0= -.88246869E+02  EK= 0.97926E+00 SP= 0.00E+00 SK= 0.00E+00
    176 T=   415. E= -.87278859E+02 F= -.88298271E+02 E0= -.88298271E+02  EK= 0.10194E+01 SP= 0.00E+00 SK= 0.00E+00
    177 T=   435. E= -.87269965E+02 F= -.88337938E+02 E0= -.88337938E+02  EK= 0.10680E+01 SP= 0.00E+00 SK= 0.00E+00
    178 T=   445. E= -.87259869E+02 F= -.88353934E+02 E0= -.88353934E+02  EK= 0.10941E+01 SP= 0.00E+00 SK= 0.00E+00
    179 T=   442. E= -.87261398E+02 F= -.88347609E+02 E0= -.88347609E+02  EK= 0.10862E+01 SP= 0.00E+00 SK= 0.00E+00
    180 T=   437. E= -.87251613E+02 F= -.88325230E+02 E0= -.88325230E+02  EK= 0.10736E+01 SP= 0.00E+00 SK= 0.00E+00
       N       E                     dE             d eps       ncg     rms          rms(c)
DAV:   1    -0.842662273464E+02    0.34092E+00   -0.19135E+02   656   0.524E+01
DAV:   2    -0.850682454865E+02   -0.80202E+00   -0.80074E+00   816   0.111E+01
DAV:   3    -0.850813610831E+02   -0.13116E-01   -0.13111E-01   760   0.157E+00
DAV:   4    -0.850818309769E+02   -0.46989E-03   -0.46984E-03   840   0.250E-01    0.529E+00
DAV:   5    -0.846895704914E+02    0.39226E+00   -0.40914E-01   727   0.234E+00    0.304E+00
DAV:   6    -0.845749732810E+02    0.11460E+00   -0.62490E-01   792   0.278E+00    0.758E-01
DAV:   7    -0.845784651988E+02   -0.34919E-02   -0.74649E-02   712   0.109E+00    0.490E-01
DAV:   8    -0.845789658108E+02   -0.50061E-03   -0.23398E-03   800   0.207E-01    0.238E-01
DAV:   9    -0.845789280887E+02    0.37722E-04   -0.11322E-03   736   0.128E-01    0.477E-02
DAV:  10    -0.845789452590E+02   -0.17170E-04   -0.15439E-04   752   0.481E-02    0.337E-02
DAV:  11    -0.845789444933E+02    0.76570E-06   -0.33040E-05   728   0.229E-02    0.134E-02
DAV:  12    -0.845789442636E+02    0.22972E-06   -0.87284E-06   712   0.124E-02
    181 T=   417. E= -.87264241E+02 F= -.88288430E+02 E0= -.88288414E+02  EK= 0.10242E+01 SP= 0.00E+00 SK= 0.00E+00
    182 T=   386. E= -.87285926E+02 F= -.88233705E+02 E0= -.88233705E+02  EK= 0.94778E+00 SP= 0.00E+00 SK= 0.00E+00
    183 T=   361. E= -.87284592E+02 F= -.88172170E+02 E0= -.88172170E+02  EK= 0.88758E+00 SP= 0.00E+00 SK= 0.00E+00
    184 T=   332. E= -.87289228E+02 F= -.88103389E+02 E0= -.88103389E+02  EK= 0.81416E+00 SP= 0.00E+00 SK= 0.00E+00
    185 T=   281. E= -.87338939E+02 F= -.88029008E+02 E0= -.88029008E+02  EK= 0.69007E+00 SP= 0.00E+00 SK= 0.00E+00
    186 T=   242. E= -.87366033E+02 F= -.87960988E+02 E0= -.87960988E+02  EK= 0.59496E+00 SP= 0.00E+00 SK= 0.00E+00
    187 T=   228. E= -.87345859E+02 F= -.87905842E+02 E0= -.87905842E+02  EK= 0.55998E+00 SP= 0.00E+00 SK= 0.00E+00
    188 T=   219. E= -.87330953E+02 F= -.87868805E+02 E0= -.87868805E+02  EK= 0.53785E+00 SP= 0.00E+00 SK= 0.00E+00
    189 T=   212. E= -.87326402E+02 F= -.87845934E+02 E0= -.87845934E+02  EK= 0.51953E+00 SP= 0.00E+00 SK= 0.00E+00
    190 T=   215. E= -.87312647E+02 F= -.87839453E+02 E0= -.87839453E+02  EK= 0.52681E+00 SP= 0.00E+00 SK= 0.00E+00
       N       E                     dE             d eps       ncg     rms          rms(c)
DAV:   1    -0.842670829338E+02    0.31186E+00   -0.33785E+01   686   0.213E+01
DAV:   2    -0.845175685010E+02   -0.25049E+00   -0.25028E+00   800   0.592E+00
DAV:   3    -0.845223747711E+02   -0.48063E-02   -0.48054E-02   808   0.916E-01
DAV:   4    -0.845225150285E+02   -0.14026E-03   -0.14024E-03   816   0.141E-01    0.261E+00
DAV:   5    -0.843023478514E+02    0.22017E+00   -0.28195E-01   718   0.193E+00    0.136E+00
DAV:   6    -0.842461534299E+02    0.56194E-01   -0.29938E-01   768   0.187E+00    0.382E-01
DAV:   7    -0.842486237883E+02   -0.24704E-02   -0.36301E-02   760   0.748E-01    0.342E-01
DAV:   8    -0.842487750390E+02   -0.15125E-03   -0.17085E-03   784   0.156E-01    0.165E-01
DAV:   9    -0.842487429186E+02    0.32120E-04   -0.48168E-04   760   0.874E-02    0.351E-02
DAV:  10    -0.842487610348E+02   -0.18116E-04   -0.90669E-05   784   0.359E-02    0.231E-02
DAV:  11    -0.842487634173E+02   -0.23824E-05   -0.16546E-05   760   0.160E-02    0.684E-03
DAV:  12    -0.842487627525E+02    0.66480E-06   -0.61715E-06   696   0.102E-02
    191 T=   220. E= -.87309369E+02 F= -.87850014E+02 E0= -.87849410E+02  EK= 0.54064E+00 SP= 0.00E+00 SK= 0.00E+00
    192 T=   238. E= -.87285434E+02 F= -.87871042E+02 E0= -.87871042E+02  EK= 0.58561E+00 SP= 0.00E+00 SK= 0.00E+00
    193 T=   260. E= -.87273188E+02 F= -.87912365E+02 E0= -.87912365E+02  EK= 0.63918E+00 SP= 0.00E+00 SK= 0.00E+00
    194 T=   277. E= -.87285995E+02 F= -.87966794E+02 E0= -.87966794E+02  EK= 0.68080E+00 SP= 0.00E+00 SK= 0.00E+00
    195 T=   303. E= -.87275212E+02 F= -.88019100E+02 E0= -.88019100E+02  EK= 0.74389E+00 SP= 0.00E+00 SK= 0.00E+00
    196 T=   323. E= -.87275547E+02 F= -.88068354E+02 E0= -.88068354E+02  EK= 0.79281E+00 SP= 0.00E+00 SK= 0.00E+00
    197 T=   334. E= -.87285847E+02 F= -.88106228E+02 E0= -.88106228E+02  EK= 0.82038E+00 SP= 0.00E+00 SK= 0.00E+00
    198 T=   333. E= -.87315449E+02 F= -.88132325E+02 E0= -.88132325E+02  EK= 0.81688E+00 SP= 0.00E+00 SK= 0.00E+00
    199 T=   326. E= -.87341983E+02 F= -.88143310E+02 E0= -.88143310E+02  EK= 0.80133E+00 SP= 0.00E+00 SK= 0.00E+00
    200 T=   331. E= -.87332384E+02 F= -.88144198E+02 E0= -.88144198E+02  EK= 0.81181E+00 SP= 0.00E+00 SK= 0.00E+00
    201 T=   333. E= -.87320793E+02 F= -.88138545E+02 E0= -.88138545E+02  EK= 0.81775E+00 SP= 0.00E+00 SK= 0.00E+00
    202 T=   335. E= -.87311487E+02 F= -.88133922E+02 E0= -.88133922E+02  EK= 0.82244E+00 SP= 0.00E+00 SK= 0.00E+00
    203 T=   329. E= -.87317191E+02 F= -.88125586E+02 E0= -.88125586E+02  EK= 0.80840E+00 SP= 0.00E+00 SK= 0.00E+00
    204 T=   324. E= -.87329480E+02 F= -.88126216E+02 E0= -.88126216E+02  EK= 0.79674E+00 SP= 0.00E+00 SK= 0.00E+00
    205 T=   322. E= -.87344024E+02 F= -.88136057E+02 E0= -.88136057E+02  EK= 0.79203E+00 SP= 0.00E+00 SK= 0.00E+00
    206 T=   325. E= -.87351451E+02 F= -.88149683E+02 E0= -.88149683E+02  EK= 0.79823E+00 SP= 0.00E+00 SK= 0.00E+00
    207 T=   340. E= -.87334178E+02 F= -.88168319E+02 E0= -.88168319E+02  EK= 0.83414E+00 SP= 0.00E+00 SK= 0.00E+00
    208 T=   358. E= -.87305507E+02 F= -.88184406E+02 E0= -.88184406E+02  EK= 0.87890E+00 SP= 0.00E+00 SK= 0.00E+00
    209 T=   366. E= -.87295425E+02 F= -.88195055E+02 E0= -.88195055E+02  EK= 0.89963E+00 SP= 0.00E+00 SK= 0.00E+00
    210 T=   365. E= -.87300494E+02 F= -.88196492E+02 E0= -.88196492E+02  EK= 0.89600E+00 SP= 0.00E+00 SK= 0.00E+00
    211 T=   352. E= -.87324351E+02 F= -.88189596E+02 E0= -.88189596E+02  EK= 0.86524E+00 SP= 0.00E+00 SK= 0.00E+00
    212 T=   342. E= -.87332723E+02 F= -.88172191E+02 E0= -.88172191E+02  EK= 0.83947E+00 SP= 0.00E+00 SK= 0.00E+00
    213 T=   334. E= -.87325588E+02 F= -.88146942E+02 E0= -.88146942E+02  EK= 0.82135E+00 SP= 0.00E+00 SK= 0.00E+00
    214 T=   321. E= -.87328201E+02 F= -.88115771E+02 E0= -.88115771E+02  EK= 0.78757E+00 SP= 0.00E+00 SK= 0.00E+00
    215 T=   311. E= -.87322661E+02 F= -.88085411E+02 E0= -.88085411E+02  EK= 0.76275E+00 SP= 0.00E+00 SK= 0.00E+00
    216 T=   307. E= -.87309606E+02 F= -.88063182E+02 E0= -.88063182E+02  EK= 0.75358E+00 SP= 0.00E+00 SK= 0.00E+00
    217 T=   302. E= -.87313151E+02 F= -.88055409E+02 E0= -.88055409E+02  EK= 0.74226E+00 SP= 0.00E+00 SK= 0.00E+00
    218 T=   302. E= -.87326396E+02 F= -.88068766E+02 E0= -.88068766E+02  EK= 0.74237E+00 SP= 0.00E+00 SK= 0.00E+00
    219 T=   306. E= -.87347060E+02 F= -.88098067E+02 E0= -.88098067E+02  EK= 0.75101E+00 SP= 0.00E+00 SK= 0.00E+00
    220 T=   309. E= -.87380333E+02 F= -.88138351E+02 E0= -.88138351E+02  EK= 0.75802E+00 SP= 0.00E+00 SK= 0.00E+00
    221 T=   319. E= -.87396812E+02 F= -.88179719E+02 E0= -.88179719E+02  EK= 0.78291E+00 SP= 0.00E+00 SK= 0.00E+00
    222 T=   337. E= -.87397440E+02 F= -.88225773E+02 E0= -.88225773E+02  EK= 0.82833E+00 SP= 0.00E+00 SK= 0.00E+00
    223 T=   348. E= -.87412389E+02 F= -.88266820E+02 E0= -.88266820E+02  EK= 0.85443E+00 SP= 0.00E+00 SK= 0.00E+00
    224 T=   357. E= -.87424848E+02 F= -.88302044E+02 E0= -.88302044E+02  EK= 0.87720E+00 SP= 0.00E+00 SK= 0.00E+00
    225 T=   366. E= -.87430406E+02 F= -.88328937E+02 E0= -.88328937E+02  EK= 0.89853E+00 SP= 0.00E+00 SK= 0.00E+00
    226 T=   370. E= -.87432080E+02 F= -.88340481E+02 E0= -.88340481E+02  EK= 0.90840E+00 SP= 0.00E+00 SK= 0.00E+00
    227 T=   374. E= -.87425976E+02 F= -.88343365E+02 E0= -.88343365E+02  EK= 0.91739E+00 SP= 0.00E+00 SK= 0.00E+00
    228 T=   372. E= -.87424144E+02 F= -.88337761E+02 E0= -.88337761E+02  EK= 0.91362E+00 SP= 0.00E+00 SK= 0.00E+00
    229 T=   377. E= -.87396093E+02 F= -.88323109E+02 E0= -.88323109E+02  EK= 0.92702E+00 SP= 0.00E+00 SK= 0.00E+00
    230 T=   385. E= -.87361796E+02 F= -.88308565E+02 E0= -.88308565E+02  EK= 0.94677E+00 SP= 0.00E+00 SK= 0.00E+00
    231 T=   385. E= -.87342264E+02 F= -.88288121E+02 E0= -.88288121E+02  EK= 0.94586E+00 SP= 0.00E+00 SK= 0.00E+00
    232 T=   381. E= -.87329223E+02 F= -.88265197E+02 E0= -.88265197E+02  EK= 0.93597E+00 SP= 0.00E+00 SK= 0.00E+00
    233 T=   361. E= -.87346878E+02 F= -.88233964E+02 E0= -.88233964E+02  EK= 0.88709E+00 SP= 0.00E+00 SK= 0.00E+00
    234 T=   356. E= -.87324891E+02 F= -.88199237E+02 E0= -.88199237E+02  EK= 0.87435E+00 SP= 0.00E+00 SK= 0.00E+00
    235 T=   356. E= -.87293028E+02 F= -.88167043E+02 E0= -.88167043E+02  EK= 0.87401E+00 SP= 0.00E+00 SK= 0.00E+00
    236 T=   335. E= -.87316840E+02 F= -.88140756E+02 E0= -.88140756E+02  EK= 0.82392E+00 SP= 0.00E+00 SK= 0.00E+00
    237 T=   312. E= -.87356881E+02 F= -.88123285E+02 E0= -.88123285E+02  EK= 0.76640E+00 SP= 0.00E+00 SK= 0.00E+00
    238 T=   296. E= -.87387447E+02 F= -.88113960E+02 E0= -.88113960E+02  EK= 0.72651E+00 SP= 0.00E+00 SK= 0.00E+00
    239 T=   287. E= -.87408377E+02 F= -.88112755E+02 E0= -.88112755E+02  EK= 0.70438E+00 SP= 0.00E+00 SK= 0.00E+00
    240 T=   287. E= -.87413526E+02 F= -.88119172E+02 E0= -.88119172E+02  EK= 0.70565E+00 SP= 0.00E+00 SK= 0.00E+00
    241 T=   292. E= -.87413564E+02 F= -.88131404E+02 E0= -.88131404E+02  EK= 0.71784E+00 SP= 0.00E+00 SK= 0.00E+00
    242 T=   299. E= -.87416540E+02 F= -.88150588E+02 E0= -.88150588E+02  EK= 0.73405E+00 SP= 0.00E+00 SK= 0.00E+00
    243 T=   304. E= -.87423076E+02 F= -.88170058E+02 E0= -.88170058E+02  EK= 0.74698E+00 SP= 0.00E+00 SK= 0.00E+00
    244 T=   305. E= -.87436961E+02 F= -.88184915E+02 E0= -.88184915E+02  EK= 0.74795E+00 SP= 0.00E+00 SK= 0.00E+00
    245 T=   305. E= -.87447932E+02 F= -.88196407E+02 E0= -.88196407E+02  EK= 0.74847E+00 SP= 0.00E+00 SK= 0.00E+00
    246 T=   301. E= -.87464892E+02 F= -.88204337E+02 E0= -.88204337E+02  EK= 0.73945E+00 SP= 0.00E+00 SK= 0.00E+00
    247 T=   302. E= -.87462224E+02 F= -.88203232E+02 E0= -.88203232E+02  EK= 0.74101E+00 SP= 0.00E+00 SK= 0.00E+00
    248 T=   311. E= -.87429998E+02 F= -.88194195E+02 E0= -.88194195E+02  EK= 0.76420E+00 SP= 0.00E+00 SK= 0.00E+00
    249 T=   317. E= -.87399938E+02 F= -.88177742E+02 E0= -.88177742E+02  EK= 0.77780E+00 SP= 0.00E+00 SK= 0.00E+00
    250 T=   304. E= -.87411132E+02 F= -.88158584E+02 E0= -.88158584E+02  EK= 0.74745E+00 SP= 0.00E+00 SK= 0.00E+00
    251 T=   302. E= -.87398542E+02 F= -.88139906E+02 E0= -.88139906E+02  EK= 0.74136E+00 SP= 0.00E+00 SK= 0.00E+00
    252 T=   294. E= -.87400451E+02 F= -.88123342E+02 E0= -.88123342E+02  EK= 0.72289E+00 SP= 0.00E+00 SK= 0.00E+00
    253 T=   272. E= -.87444698E+02 F= -.88113393E+02 E0= -.88113393E+02  EK= 0.66870E+00 SP= 0.00E+00 SK= 0.00E+00
    254 T=   264. E= -.87463406E+02 F= -.88111699E+02 E0= -.88111699E+02  EK= 0.64829E+00 SP= 0.00E+00 SK= 0.00E+00
    255 T=   262. E= -.87477627E+02 F= -.88120112E+02 E0= -.88120112E+02  EK= 0.64248E+00 SP= 0.00E+00 SK= 0.00E+00
    256 T=   268. E= -.87477451E+02 F= -.88136348E+02 E0= -.88136348E+02  EK= 0.65890E+00 SP= 0.00E+00 SK= 0.00E+00
    257 T=   279. E= -.87469924E+02 F= -.88154991E+02 E0= -.88154991E+02  EK= 0.68507E+00 SP= 0.00E+00 SK= 0.00E+00
    258 T=   287. E= -.87469494E+02 F= -.88174215E+02 E0= -.88174215E+02  EK= 0.70472E+00 SP= 0.00E+00 SK= 0.00E+00
    259 T=   290. E= -.87472822E+02 F= -.88184209E+02 E0= -.88184209E+02  EK= 0.71139E+00 SP= 0.00E+00 SK= 0.00E+00
    260 T=   285. E= -.87487098E+02 F= -.88186863E+02 E0= -.88186863E+02  EK= 0.69977E+00 SP= 0.00E+00 SK= 0.00E+00
    261 T=   285. E= -.87485015E+02 F= -.88184986E+02 E0= -.88184986E+02  EK= 0.69997E+00 SP= 0.00E+00 SK= 0.00E+00
    262 T=   282. E= -.87477334E+02 F= -.88170620E+02 E0= -.88170620E+02  EK= 0.69329E+00 SP= 0.00E+00 SK= 0.00E+00
    263 T=   270. E= -.87480940E+02 F= -.88144893E+02 E0= -.88144893E+02  EK= 0.66395E+00 SP= 0.00E+00 SK= 0.00E+00
    264 T=   261. E= -.87473729E+02 F= -.88115939E+02 E0= -.88115939E+02  EK= 0.64221E+00 SP= 0.00E+00 SK= 0.00E+00
    265 T=   255. E= -.87457062E+02 F= -.88083747E+02 E0= -.88083747E+02  EK= 0.62668E+00 SP= 0.00E+00 SK= 0.00E+00
    266 T=   246. E= -.87454565E+02 F= -.88059292E+02 E0= -.88059292E+02  EK= 0.60473E+00 SP= 0.00E+00 SK= 0.00E+00
    267 T=   241. E= -.87457830E+02 F= -.88050124E+02 E0= -.88050124E+02  EK= 0.59229E+00 SP= 0.00E+00 SK= 0.00E+00
    268 T=   245. E= -.87456247E+02 F= -.88057016E+02 E0= -.88057016E+02  EK= 0.60077E+00 SP= 0.00E+00 SK= 0.00E+00
    269 T=   253. E= -.87452033E+02 F= -.88072337E+02 E0= -.88072337E+02  EK= 0.62030E+00 SP= 0.00E+00 SK= 0.00E+00
    270 T=   262. E= -.87450720E+02 F= -.88094820E+02 E0= -.88094820E+02  EK= 0.64410E+00 SP= 0.00E+00 SK= 0.00E+00
    271 T=   275. E= -.87451625E+02 F= -.88126143E+02 E0= -.88126143E+02  EK= 0.67452E+00 SP= 0.00E+00 SK= 0.00E+00
    272 T=   285. E= -.87463239E+02 F= -.88162872E+02 E0= -.88162872E+02  EK= 0.69963E+00 SP= 0.00E+00 SK= 0.00E+00
    273 T=   288. E= -.87493330E+02 F= -.88199626E+02 E0= -.88199626E+02  EK= 0.70630E+00 SP= 0.00E+00 SK= 0.00E+00
    274 T=   298. E= -.87498024E+02 F= -.88229228E+02 E0= -.88229228E+02  EK= 0.73120E+00 SP= 0.00E+00 SK= 0.00E+00
    275 T=   321. E= -.87464031E+02 F= -.88253448E+02 E0= -.88253448E+02  EK= 0.78942E+00 SP= 0.00E+00 SK= 0.00E+00
    276 T=   338. E= -.87441593E+02 F= -.88272282E+02 E0= -.88272282E+02  EK= 0.83069E+00 SP= 0.00E+00 SK= 0.00E+00
    277 T=   340. E= -.87447267E+02 F= -.88282968E+02 E0= -.88282968E+02  EK= 0.83570E+00 SP= 0.00E+00 SK= 0.00E+00
    278 T=   336. E= -.87456277E+02 F= -.88282697E+02 E0= -.88282697E+02  EK= 0.82642E+00 SP= 0.00E+00 SK= 0.00E+00
    279 T=   335. E= -.87448321E+02 F= -.88271775E+02 E0= -.88271775E+02  EK= 0.82345E+00 SP= 0.00E+00 SK= 0.00E+00
    280 T=   326. E= -.87453206E+02 F= -.88253275E+02 E0= -.88253275E+02  EK= 0.80007E+00 SP= 0.00E+00 SK= 0.00E+00
    281 T=   312. E= -.87463936E+02 F= -.88230081E+02 E0= -.88230081E+02  EK= 0.76614E+00 SP= 0.00E+00 SK= 0.00E+00
    282 T=   295. E= -.87484650E+02 F= -.88208828E+02 E0= -.88208828E+02  EK= 0.72418E+00 SP= 0.00E+00 SK= 0.00E+00
    283 T=   276. E= -.87513352E+02 F= -.88190436E+02 E0= -.88190436E+02  EK= 0.67708E+00 SP= 0.00E+00 SK= 0.00E+00
    284 T=   269. E= -.87514353E+02 F= -.88173897E+02 E0= -.88173897E+02  EK= 0.65954E+00 SP= 0.00E+00 SK= 0.00E+00
    285 T=   261. E= -.87521888E+02 F= -.88162748E+02 E0= -.88162748E+02  EK= 0.64086E+00 SP= 0.00E+00 SK= 0.00E+00
    286 T=   258. E= -.87521933E+02 F= -.88156139E+02 E0= -.88156139E+02  EK= 0.63421E+00 SP= 0.00E+00 SK= 0.00E+00
    287 T=   259. E= -.87520454E+02 F= -.88155518E+02 E0= -.88155518E+02  EK= 0.63506E+00 SP= 0.00E+00 SK= 0.00E+00
    288 T=   253. E= -.87533651E+02 F= -.88154513E+02 E0= -.88154513E+02  EK= 0.62086E+00 SP= 0.00E+00 SK= 0.00E+00
    289 T=   252. E= -.87539222E+02 F= -.88157493E+02 E0= -.88157493E+02  EK= 0.61827E+00 SP= 0.00E+00 SK= 0.00E+00
    290 T=   262. E= -.87521954E+02 F= -.88164617E+02 E0= -.88164617E+02  EK= 0.64266E+00 SP= 0.00E+00 SK= 0.00E+00
    291 T=   273. E= -.87508325E+02 F= -.88178251E+02 E0= -.88178251E+02  EK= 0.66993E+00 SP= 0.00E+00 SK= 0.00E+00
    292 T=   277. E= -.87508892E+02 F= -.88189539E+02 E0= -.88189539E+02  EK= 0.68065E+00 SP= 0.00E+00 SK= 0.00E+00
    293 T=   281. E= -.87508842E+02 F= -.88198361E+02 E0= -.88198361E+02  EK= 0.68952E+00 SP= 0.00E+00 SK= 0.00E+00
    294 T=   277. E= -.87519908E+02 F= -.88199322E+02 E0= -.88199322E+02  EK= 0.67941E+00 SP= 0.00E+00 SK= 0.00E+00
    295 T=   272. E= -.87531087E+02 F= -.88199794E+02 E0= -.88199794E+02  EK= 0.66871E+00 SP= 0.00E+00 SK= 0.00E+00
    296 T=   270. E= -.87539752E+02 F= -.88202182E+02 E0= -.88202182E+02  EK= 0.66243E+00 SP= 0.00E+00 SK= 0.00E+00
    297 T=   261. E= -.87563480E+02 F= -.88205168E+02 E0= -.88205168E+02  EK= 0.64169E+00 SP= 0.00E+00 SK= 0.00E+00
    298 T=   258. E= -.87579746E+02 F= -.88214323E+02 E0= -.88214323E+02  EK= 0.63458E+00 SP= 0.00E+00 SK= 0.00E+00
    299 T=   267. E= -.87571601E+02 F= -.88227973E+02 E0= -.88227973E+02  EK= 0.65637E+00 SP= 0.00E+00 SK= 0.00E+00
    300 T=   284. E= -.87552617E+02 F= -.88251139E+02 E0= -.88251139E+02  EK= 0.69852E+00 SP= 0.00E+00 SK= 0.00E+00
    301 T=   296. E= -.87551243E+02 F= -.88278215E+02 E0= -.88278215E+02  EK= 0.72697E+00 SP= 0.00E+00 SK= 0.00E+00
    302 T=   309. E= -.87545356E+02 F= -.88305020E+02 E0= -.88305020E+02  EK= 0.75966E+00 SP= 0.00E+00 SK= 0.00E+00
    303 T=   325. E= -.87529243E+02 F= -.88327091E+02 E0= -.88327091E+02  EK= 0.79785E+00 SP= 0.00E+00 SK= 0.00E+00
    304 T=   327. E= -.87534177E+02 F= -.88337708E+02 E0= -.88337708E+02  EK= 0.80353E+00 SP= 0.00E+00 SK= 0.00E+00
    305 T=   324. E= -.87546419E+02 F= -.88341017E+02 E0= -.88341017E+02  EK= 0.79460E+00 SP= 0.00E+00 SK= 0.00E+00
    306 T=   325. E= -.87537638E+02 F= -.88335373E+02 E0= -.88335373E+02  EK= 0.79774E+00 SP= 0.00E+00 SK= 0.00E+00
    307 T=   318. E= -.87540625E+02 F= -.88322147E+02 E0= -.88322147E+02  EK= 0.78152E+00 SP= 0.00E+00 SK= 0.00E+00
    308 T=   305. E= -.87551027E+02 F= -.88301245E+02 E0= -.88301245E+02  EK= 0.75022E+00 SP= 0.00E+00 SK= 0.00E+00
    309 T=   298. E= -.87548949E+02 F= -.88281300E+02 E0= -.88281300E+02  EK= 0.73235E+00 SP= 0.00E+00 SK= 0.00E+00
    310 T=   293. E= -.87542245E+02 F= -.88261902E+02 E0= -.88261902E+02  EK= 0.71966E+00 SP= 0.00E+00 SK= 0.00E+00
    311 T=   282. E= -.87544496E+02 F= -.88238012E+02 E0= -.88238012E+02  EK= 0.69352E+00 SP= 0.00E+00 SK= 0.00E+00
    312 T=   276. E= -.87537274E+02 F= -.88215106E+02 E0= -.88215106E+02  EK= 0.67783E+00 SP= 0.00E+00 SK= 0.00E+00
    313 T=   270. E= -.87524479E+02 F= -.88187763E+02 E0= -.88187763E+02  EK= 0.66328E+00 SP= 0.00E+00 SK= 0.00E+00
    314 T=   255. E= -.87533438E+02 F= -.88158539E+02 E0= -.88158539E+02  EK= 0.62510E+00 SP= 0.00E+00 SK= 0.00E+00
    315 T=   249. E= -.87521944E+02 F= -.88132774E+02 E0= -.88132774E+02  EK= 0.61083E+00 SP= 0.00E+00 SK= 0.00E+00
    316 T=   247. E= -.87500250E+02 F= -.88106824E+02 E0= -.88106824E+02  EK= 0.60657E+00 SP= 0.00E+00 SK= 0.00E+00
    317 T=   251. E= -.87475133E+02 F= -.88091908E+02 E0= -.88091908E+02  EK= 0.61677E+00 SP= 0.00E+00 SK= 0.00E+00
    318 T=   256. E= -.87457014E+02 F= -.88085926E+02 E0= -.88085926E+02  EK= 0.62891E+00 SP= 0.00E+00 SK= 0.00E+00
    319 T=   254. E= -.87468015E+02 F= -.88090662E+02 E0= -.88090662E+02  EK= 0.62265E+00 SP= 0.00E+00 SK= 0.00E+00
    320 T=   258. E= -.87477556E+02 F= -.88111015E+02 E0= -.88111015E+02  EK= 0.63346E+00 SP= 0.00E+00 SK= 0.00E+00
    321 T=   270. E= -.87480328E+02 F= -.88142862E+02 E0= -.88142862E+02  EK= 0.66253E+00 SP= 0.00E+00 SK= 0.00E+00
    322 T=   288. E= -.87478989E+02 F= -.88185989E+02 E0= -.88185989E+02  EK= 0.70700E+00 SP= 0.00E+00 SK= 0.00E+00
    323 T=   315. E= -.87468780E+02 F= -.88242183E+02 E0= -.88242183E+02  EK= 0.77340E+00 SP= 0.00E+00 SK= 0.00E+00
    324 T=   352. E= -.87437585E+02 F= -.88301599E+02 E0= -.88301599E+02  EK= 0.86401E+00 SP= 0.00E+00 SK= 0.00E+00
    325 T=   373. E= -.87438151E+02 F= -.88353265E+02 E0= -.88353265E+02  EK= 0.91511E+00 SP= 0.00E+00 SK= 0.00E+00
    326 T=   392. E= -.87429382E+02 F= -.88391347E+02 E0= -.88391347E+02  EK= 0.96197E+00 SP= 0.00E+00 SK= 0.00E+00
    327 T=   412. E= -.87400515E+02 F= -.88413442E+02 E0= -.88413442E+02  EK= 0.10129E+01 SP= 0.00E+00 SK= 0.00E+00
    328 T=   421. E= -.87379532E+02 F= -.88412499E+02 E0= -.88412499E+02  EK= 0.10330E+01 SP= 0.00E+00 SK= 0.00E+00
    329 T=   412. E= -.87377370E+02 F= -.88389523E+02 E0= -.88389523E+02  EK= 0.10122E+01 SP= 0.00E+00 SK= 0.00E+00
    330 T=   391. E= -.87395192E+02 F= -.88354273E+02 E0= -.88354273E+02  EK= 0.95908E+00 SP= 0.00E+00 SK= 0.00E+00
    331 T=   370. E= -.87395817E+02 F= -.88303723E+02 E0= -.88303723E+02  EK= 0.90791E+00 SP= 0.00E+00 SK= 0.00E+00
    332 T=   360. E= -.87364049E+02 F= -.88249064E+02 E0= -.88249064E+02  EK= 0.88501E+00 SP= 0.00E+00 SK= 0.00E+00
    333 T=   349. E= -.87338761E+02 F= -.88196386E+02 E0= -.88196386E+02  EK= 0.85762E+00 SP= 0.00E+00 SK= 0.00E+00
    334 T=   326. E= -.87351370E+02 F= -.88153094E+02 E0= -.88153094E+02  EK= 0.80172E+00 SP= 0.00E+00 SK= 0.00E+00
    335 T=   299. E= -.87377355E+02 F= -.88112827E+02 E0= -.88112827E+02  EK= 0.73547E+00 SP= 0.00E+00 SK= 0.00E+00
    336 T=   275. E= -.87404017E+02 F= -.88080312E+02 E0= -.88080312E+02  EK= 0.67629E+00 SP= 0.00E+00 SK= 0.00E+00
    337 T=   261. E= -.87419432E+02 F= -.88059435E+02 E0= -.88059435E+02  EK= 0.64000E+00 SP= 0.00E+00 SK= 0.00E+00
    338 T=   260. E= -.87411005E+02 F= -.88050120E+02 E0= -.88050120E+02  EK= 0.63911E+00 SP= 0.00E+00 SK= 0.00E+00
    339 T=   262. E= -.87409331E+02 F= -.88052161E+02 E0= -.88052161E+02  EK= 0.64283E+00 SP= 0.00E+00 SK= 0.00E+00
    340 T=   269. E= -.87401199E+02 F= -.88061670E+02 E0= -.88061670E+02  EK= 0.66047E+00 SP= 0.00E+00 SK= 0.00E+00
    341 T=   288. E= -.87368297E+02 F= -.88076160E+02 E0= -.88076160E+02  EK= 0.70786E+00 SP= 0.00E+00 SK= 0.00E+00
    342 T=   311. E= -.87333172E+02 F= -.88097936E+02 E0= -.88097936E+02  EK= 0.76476E+00 SP= 0.00E+00 SK= 0.00E+00
    343 T=   324. E= -.87338062E+02 F= -.88134241E+02 E0= -.88134241E+02  EK= 0.79618E+00 SP= 0.00E+00 SK= 0.00E+00
    344 T=   329. E= -.87361741E+02 F= -.88168893E+02 E0= -.88168893E+02  EK= 0.80715E+00 SP= 0.00E+00 SK= 0.00E+00
    345 T=   333. E= -.87384510E+02 F= -.88202189E+02 E0= -.88202189E+02  EK= 0.81768E+00 SP= 0.00E+00 SK= 0.00E+00
    346 T=   341. E= -.87390412E+02 F= -.88227937E+02 E0= -.88227937E+02  EK= 0.83753E+00 SP= 0.00E+00 SK= 0.00E+00
    347 T=   359. E= -.87358644E+02 F= -.88240376E+02 E0= -.88240376E+02  EK= 0.88173E+00 SP= 0.00E+00 SK= 0.00E+00
    348 T=   374. E= -.87319482E+02 F= -.88237017E+02 E0= -.88237017E+02  EK= 0.91753E+00 SP= 0.00E+00 SK= 0.00E+00
    349 T=   368. E= -.87310332E+02 F= -.88214246E+02 E0= -.88214246E+02  EK= 0.90391E+00 SP= 0.00E+00 SK= 0.00E+00
    350 T=   351. E= -.87306526E+02 F= -.88168380E+02 E0= -.88168380E+02  EK= 0.86185E+00 SP= 0.00E+00 SK= 0.00E+00
    351 T=   327. E= -.87301761E+02 F= -.88104578E+02 E0= -.88104578E+02  EK= 0.80282E+00 SP= 0.00E+00 SK= 0.00E+00
    352 T=   293. E= -.87314344E+02 F= -.88033789E+02 E0= -.88033789E+02  EK= 0.71944E+00 SP= 0.00E+00 SK= 0.00E+00
    353 T=   263. E= -.87328600E+02 F= -.87975386E+02 E0= -.87975386E+02  EK= 0.64679E+00 SP= 0.00E+00 SK= 0.00E+00
    354 T=   240. E= -.87337113E+02 F= -.87926203E+02 E0= -.87926203E+02  EK= 0.58909E+00 SP= 0.00E+00 SK= 0.00E+00
    355 T=   224. E= -.87354734E+02 F= -.87904110E+02 E0= -.87904110E+02  EK= 0.54938E+00 SP= 0.00E+00 SK= 0.00E+00
    356 T=   221. E= -.87365459E+02 F= -.87908352E+02 E0= -.87908352E+02  EK= 0.54289E+00 SP= 0.00E+00 SK= 0.00E+00
    357 T=   232. E= -.87366629E+02 F= -.87935831E+02 E0= -.87935831E+02  EK= 0.56920E+00 SP= 0.00E+00 SK= 0.00E+00
    358 T=   255. E= -.87353649E+02 F= -.87981129E+02 E0= -.87981129E+02  EK= 0.62748E+00 SP= 0.00E+00 SK= 0.00E+00
    359 T=   289. E= -.87335291E+02 F= -.88043988E+02 E0= -.88043988E+02  EK= 0.70870E+00 SP= 0.00E+00 SK= 0.00E+00
    360 T=   311. E= -.87346791E+02 F= -.88110623E+02 E0= -.88110623E+02  EK= 0.76383E+00 SP= 0.00E+00 SK= 0.00E+00
    361 T=   333. E= -.87350128E+02 F= -.88168100E+02 E0= -.88168100E+02  EK= 0.81797E+00 SP= 0.00E+00 SK= 0.00E+00
    362 T=   363. E= -.87323583E+02 F= -.88214010E+02 E0= -.88214010E+02  EK= 0.89043E+00 SP= 0.00E+00 SK= 0.00E+00
    363 T=   380. E= -.87302913E+02 F= -.88236015E+02 E0= -.88236015E+02  EK= 0.93310E+00 SP= 0.00E+00 SK= 0.00E+00
    364 T=   389. E= -.87275232E+02 F= -.88229738E+02 E0= -.88229738E+02  EK= 0.95451E+00 SP= 0.00E+00 SK= 0.00E+00
    365 T=   379. E= -.87257007E+02 F= -.88188655E+02 E0= -.88188655E+02  EK= 0.93165E+00 SP= 0.00E+00 SK= 0.00E+00
    366 T=   346. E= -.87274350E+02 F= -.88125042E+02 E0= -.88125042E+02  EK= 0.85069E+00 SP= 0.00E+00 SK= 0.00E+00
    367 T=   313. E= -.87285554E+02 F= -.88053733E+02 E0= -.88053733E+02  EK= 0.76818E+00 SP= 0.00E+00 SK= 0.00E+00
    368 T=   288. E= -.87269052E+02 F= -.87976215E+02 E0= -.87976215E+02  EK= 0.70716E+00 SP= 0.00E+00 SK= 0.00E+00
    369 T=   267. E= -.87248867E+02 F= -.87905658E+02 E0= -.87905658E+02  EK= 0.65679E+00 SP= 0.00E+00 SK= 0.00E+00
    370 T=   253. E= -.87233479E+02 F= -.87853826E+02 E0= -.87853826E+02  EK= 0.62035E+00 SP= 0.00E+00 SK= 0.00E+00
    371 T=   237. E= -.87241320E+02 F= -.87822953E+02 E0= -.87822953E+02  EK= 0.58163E+00 SP= 0.00E+00 SK= 0.00E+00
    372 T=   231. E= -.87253897E+02 F= -.87822412E+02 E0= -.87822412E+02  EK= 0.56852E+00 SP= 0.00E+00 SK= 0.00E+00
    373 T=   248. E= -.87235858E+02 F= -.87843974E+02 E0= -.87843974E+02  EK= 0.60812E+00 SP= 0.00E+00 SK= 0.00E+00
    374 T=   272. E= -.87200928E+02 F= -.87868456E+02 E0= -.87868456E+02  EK= 0.66753E+00 SP= 0.00E+00 SK= 0.00E+00
    375 T=   281. E= -.87202825E+02 F= -.87892608E+02 E0= -.87892608E+02  EK= 0.68978E+00 SP= 0.00E+00 SK= 0.00E+00
    376 T=   285. E= -.87224291E+02 F= -.87923461E+02 E0= -.87923461E+02  EK= 0.69917E+00 SP= 0.00E+00 SK= 0.00E+00
    377 T=   307. E= -.87201096E+02 F= -.87954804E+02 E0= -.87954804E+02  EK= 0.75371E+00 SP= 0.00E+00 SK= 0.00E+00
    378 T=   333. E= -.87174412E+02 F= -.87991400E+02 E0= -.87991400E+02  EK= 0.81699E+00 SP= 0.00E+00 SK= 0.00E+00
    379 T=   344. E= -.87184283E+02 F= -.88029995E+02 E0= -.88029995E+02  EK= 0.84571E+00 SP= 0.00E+00 SK= 0.00E+00
    380 T=   357. E= -.87192355E+02 F= -.88069138E+02 E0= -.88069138E+02  EK= 0.87678E+00 SP= 0.00E+00 SK= 0.00E+00
    381 T=   377. E= -.87189802E+02 F= -.88116404E+02 E0= -.88116404E+02  EK= 0.92660E+00 SP= 0.00E+00 SK= 0.00E+00
    382 T=   390. E= -.87194312E+02 F= -.88153324E+02 E0= -.88153324E+02  EK= 0.95901E+00 SP= 0.00E+00 SK= 0.00E+00
    383 T=   397. E= -.87206609E+02 F= -.88180849E+02 E0= -.88180849E+02  EK= 0.97424E+00 SP= 0.00E+00 SK= 0.00E+00
    384 T=   396. E= -.87215896E+02 F= -.88188092E+02 E0= -.88188092E+02  EK= 0.97220E+00 SP= 0.00E+00 SK= 0.00E+00
    385 T=   393. E= -.87217164E+02 F= -.88182017E+02 E0= -.88182017E+02  EK= 0.96485E+00 SP= 0.00E+00 SK= 0.00E+00
    386 T=   386. E= -.87218617E+02 F= -.88165988E+02 E0= -.88165988E+02  EK= 0.94737E+00 SP= 0.00E+00 SK= 0.00E+00
    387 T=   368. E= -.87233327E+02 F= -.88136493E+02 E0= -.88136493E+02  EK= 0.90317E+00 SP= 0.00E+00 SK= 0.00E+00
    388 T=   342. E= -.87262949E+02 F= -.88103745E+02 E0= -.88103745E+02  EK= 0.84080E+00 SP= 0.00E+00 SK= 0.00E+00
    389 T=   333. E= -.87256993E+02 F= -.88074494E+02 E0= -.88074494E+02  EK= 0.81750E+00 SP= 0.00E+00 SK= 0.00E+00
    390 T=   326. E= -.87251532E+02 F= -.88052530E+02 E0= -.88052530E+02  EK= 0.80100E+00 SP= 0.00E+00 SK= 0.00E+00
    391 T=   306. E= -.87280652E+02 F= -.88031350E+02 E0= -.88031350E+02  EK= 0.75070E+00 SP= 0.00E+00 SK= 0.00E+00
    392 T=   292. E= -.87292559E+02 F= -.88010437E+02 E0= -.88010437E+02  EK= 0.71788E+00 SP= 0.00E+00 SK= 0.00E+00
    393 T=   288. E= -.87286738E+02 F= -.87993753E+02 E0= -.87993753E+02  EK= 0.70701E+00 SP= 0.00E+00 SK= 0.00E+00
    394 T=   288. E= -.87292744E+02 F= -.88000344E+02 E0= -.88000344E+02  EK= 0.70760E+00 SP= 0.00E+00 SK= 0.00E+00
    395 T=   291. E= -.87314432E+02 F= -.88029067E+02 E0= -.88029067E+02  EK= 0.71464E+00 SP= 0.00E+00 SK= 0.00E+00
    396 T=   309. E= -.87330304E+02 F= -.88088529E+02 E0= -.88088529E+02  EK= 0.75822E+00 SP= 0.00E+00 SK= 0.00E+00
    397 T=   340. E= -.87337642E+02 F= -.88172078E+02 E0= -.88172078E+02  EK= 0.83444E+00 SP= 0.00E+00 SK= 0.00E+00
    398 T=   383. E= -.87328438E+02 F= -.88270073E+02 E0= -.88270073E+02  EK= 0.94163E+00 SP= 0.00E+00 SK= 0.00E+00
    399 T=   424. E= -.87323625E+02 F= -.88365108E+02 E0= -.88365108E+02  EK= 0.10415E+01 SP= 0.00E+00 SK= 0.00E+00
    400 T=   454. E= -.87329713E+02 F= -.88444776E+02 E0= -.88444776E+02  EK= 0.11151E+01 SP= 0.00E+00 SK= 0.00E+00
    401 T=   475. E= -.87327660E+02 F= -.88494977E+02 E0= -.88494977E+02  EK= 0.11673E+01 SP= 0.00E+00 SK= 0.00E+00
    402 T=   476. E= -.87341129E+02 F= -.88510147E+02 E0= -.88510147E+02  EK= 0.11690E+01 SP= 0.00E+00 SK= 0.00E+00
    403 T=   460. E= -.87356122E+02 F= -.88486582E+02 E0= -.88486582E+02  EK= 0.11305E+01 SP= 0.00E+00 SK= 0.00E+00
    404 T=   430. E= -.87372451E+02 F= -.88429548E+02 E0= -.88429548E+02  EK= 0.10571E+01 SP= 0.00E+00 SK= 0.00E+00
    405 T=   393. E= -.87391438E+02 F= -.88355897E+02 E0= -.88355897E+02  EK= 0.96446E+00 SP= 0.00E+00 SK= 0.00E+00
    406 T=   361. E= -.87383877E+02 F= -.88271222E+02 E0= -.88271222E+02  EK= 0.88734E+00 SP= 0.00E+00 SK= 0.00E+00
    407 T=   326. E= -.87386066E+02 F= -.88187911E+02 E0= -.88187911E+02  EK= 0.80184E+00 SP= 0.00E+00 SK= 0.00E+00
    408 T=   294. E= -.87394261E+02 F= -.88116554E+02 E0= -.88116554E+02  EK= 0.72229E+00 SP= 0.00E+00 SK= 0.00E+00
    409 T=   280. E= -.87372971E+02 F= -.88061511E+02 E0= -.88061511E+02  EK= 0.68854E+00 SP= 0.00E+00 SK= 0.00E+00
    410 T=   275. E= -.87355836E+02 F= -.88031880E+02 E0= -.88031880E+02  EK= 0.67604E+00 SP= 0.00E+00 SK= 0.00E+00
    411 T=   270. E= -.87358376E+02 F= -.88022480E+02 E0= -.88022480E+02  EK= 0.66410E+00 SP= 0.00E+00 SK= 0.00E+00
    412 T=   274. E= -.87360835E+02 F= -.88034867E+02 E0= -.88034867E+02  EK= 0.67403E+00 SP= 0.00E+00 SK= 0.00E+00
    413 T=   293. E= -.87337991E+02 F= -.88057087E+02 E0= -.88057087E+02  EK= 0.71910E+00 SP= 0.00E+00 SK= 0.00E+00
    414 T=   314. E= -.87308163E+02 F= -.88078538E+02 E0= -.88078538E+02  EK= 0.77038E+00 SP= 0.00E+00 SK= 0.00E+00
    415 T=   323. E= -.87297071E+02 F= -.88089214E+02 E0= -.88089214E+02  EK= 0.79214E+00 SP= 0.00E+00 SK= 0.00E+00
    416 T=   309. E= -.87323756E+02 F= -.88083130E+02 E0= -.88083130E+02  EK= 0.75937E+00 SP= 0.00E+00 SK= 0.00E+00
    417 T=   296. E= -.87340283E+02 F= -.88066476E+02 E0= -.88066476E+02  EK= 0.72619E+00 SP= 0.00E+00 SK= 0.00E+00
    418 T=   289. E= -.87330861E+02 F= -.88039557E+02 E0= -.88039557E+02  EK= 0.70870E+00 SP= 0.00E+00 SK= 0.00E+00
    419 T=   281. E= -.87330200E+02 F= -.88019858E+02 E0= -.88019858E+02  EK= 0.68966E+00 SP= 0.00E+00 SK= 0.00E+00
    420 T=   277. E= -.87334562E+02 F= -.88015245E+02 E0= -.88015245E+02  EK= 0.68068E+00 SP= 0.00E+00 SK= 0.00E+00
    421 T=   282. E= -.87334645E+02 F= -.88026113E+02 E0= -.88026113E+02  EK= 0.69147E+00 SP= 0.00E+00 SK= 0.00E+00
    422 T=   293. E= -.87330332E+02 F= -.88048993E+02 E0= -.88048993E+02  EK= 0.71866E+00 SP= 0.00E+00 SK= 0.00E+00
    423 T=   311. E= -.87316793E+02 F= -.88080726E+02 E0= -.88080726E+02  EK= 0.76393E+00 SP= 0.00E+00 SK= 0.00E+00
    424 T=   319. E= -.87335663E+02 F= -.88118569E+02 E0= -.88118569E+02  EK= 0.78291E+00 SP= 0.00E+00 SK= 0.00E+00
    425 T=   321. E= -.87354050E+02 F= -.88143262E+02 E0= -.88143262E+02  EK= 0.78921E+00 SP= 0.00E+00 SK= 0.00E+00
    426 T=   333. E= -.87337988E+02 F= -.88156022E+02 E0= -.88156022E+02  EK= 0.81803E+00 SP= 0.00E+00 SK= 0.00E+00
    427 T=   337. E= -.87320534E+02 F= -.88147602E+02 E0= -.88147602E+02  EK= 0.82707E+00 SP= 0.00E+00 SK= 0.00E+00
    428 T=   332. E= -.87301772E+02 F= -.88117108E+02 E0= -.88117108E+02  EK= 0.81534E+00 SP= 0.00E+00 SK= 0.00E+00
    429 T=   333. E= -.87252856E+02 F= -.88069626E+02 E0= -.88069626E+02  EK= 0.81677E+00 SP= 0.00E+00 SK= 0.00E+00
    430 T=   329. E= -.87199758E+02 F= -.88007114E+02 E0= -.88007114E+02  EK= 0.80736E+00 SP= 0.00E+00 SK= 0.00E+00
    431 T=   298. E= -.87203292E+02 F= -.87934276E+02 E0= -.87934276E+02  EK= 0.73098E+00 SP= 0.00E+00 SK= 0.00E+00
    432 T=   266. E= -.87217589E+02 F= -.87870610E+02 E0= -.87870610E+02  EK= 0.65302E+00 SP= 0.00E+00 SK= 0.00E+00
       N       E                     dE             d eps       ncg     rms          rms(c)
DAV:   1    -0.774008299128E+02    0.68479E+01   -0.99337E+02   657   0.110E+02
DAV:   2    -0.854017950309E+02   -0.80010E+01   -0.78689E+01   791   0.315E+01
DAV:   3    -0.855250806443E+02   -0.12329E+00   -0.12323E+00   792   0.466E+00
DAV:   4    -0.855281836904E+02   -0.31030E-02   -0.31027E-02   807   0.678E-01    0.103E+01
DAV:   5    -0.844399779543E+02    0.10882E+01   -0.13941E+00   759   0.424E+00    0.605E+00
DAV:   6    -0.841920354428E+02    0.24794E+00   -0.20987E+00   782   0.513E+00    0.133E+00
DAV:   7    -0.842010747530E+02   -0.90393E-02   -0.24249E-01   703   0.192E+00    0.836E-01
DAV:   8    -0.842041637350E+02   -0.30890E-02   -0.93216E-03   816   0.428E-01    0.375E-01
DAV:   9    -0.842040093204E+02    0.15441E-03   -0.27238E-03   758   0.189E-01    0.102E-01
DAV:  10    -0.842040478193E+02   -0.38499E-04   -0.41439E-04   768   0.756E-02    0.587E-02
DAV:  11    -0.842040444215E+02    0.33978E-05   -0.70044E-05   744   0.328E-02    0.293E-02
DAV:  12    -0.842040455906E+02   -0.11691E-05   -0.13021E-05   704   0.143E-02    0.705E-03
DAV:  13    -0.842040457839E+02   -0.19328E-06   -0.13891E-06   384   0.505E-03
    433 T=   248. E= -.87212396E+02 F= -.87822676E+02 E0= -.87822591E+02  EK= 0.61028E+00 SP= 0.00E+00 SK= 0.00E+00
    434 T=   237. E= -.87201584E+02 F= -.87784456E+02 E0= -.87784456E+02  EK= 0.58287E+00 SP= 0.00E+00 SK= 0.00E+00
    435 T=   229. E= -.87216322E+02 F= -.87778970E+02 E0= -.87778970E+02  EK= 0.56265E+00 SP= 0.00E+00 SK= 0.00E+00
    436 T=   241. E= -.87213948E+02 F= -.87805087E+02 E0= -.87805087E+02  EK= 0.59114E+00 SP= 0.00E+00 SK= 0.00E+00
    437 T=   266. E= -.87198810E+02 F= -.87851982E+02 E0= -.87851982E+02  EK= 0.65317E+00 SP= 0.00E+00 SK= 0.00E+00
    438 T=   297. E= -.87184755E+02 F= -.87914493E+02 E0= -.87914493E+02  EK= 0.72974E+00 SP= 0.00E+00 SK= 0.00E+00
    439 T=   318. E= -.87201588E+02 F= -.87981602E+02 E0= -.87981602E+02  EK= 0.78001E+00 SP= 0.00E+00 SK= 0.00E+00
    440 T=   339. E= -.87206530E+02 F= -.88039213E+02 E0= -.88039213E+02  EK= 0.83268E+00 SP= 0.00E+00 SK= 0.00E+00
    441 T=   361. E= -.87202865E+02 F= -.88088788E+02 E0= -.88088788E+02  EK= 0.88592E+00 SP= 0.00E+00 SK= 0.00E+00
    442 T=   377. E= -.87194454E+02 F= -.88119473E+02 E0= -.88119473E+02  EK= 0.92502E+00 SP= 0.00E+00 SK= 0.00E+00
    443 T=   392. E= -.87161043E+02 F= -.88123892E+02 E0= -.88123892E+02  EK= 0.96285E+00 SP= 0.00E+00 SK= 0.00E+00
    444 T=   394. E= -.87141423E+02 F= -.88109359E+02 E0= -.88109359E+02  EK= 0.96794E+00 SP= 0.00E+00 SK= 0.00E+00
    445 T=   386. E= -.87143466E+02 F= -.88091039E+02 E0= -.88091039E+02  EK= 0.94757E+00 SP= 0.00E+00 SK= 0.00E+00
    446 T=   387. E= -.87137327E+02 F= -.88088739E+02 E0= -.88088739E+02  EK= 0.95141E+00 SP= 0.00E+00 SK= 0.00E+00
    447 T=   398. E= -.87111893E+02 F= -.88089578E+02 E0= -.88089578E+02  EK= 0.97768E+00 SP= 0.00E+00 SK= 0.00E+00
    448 T=   401. E= -.87111098E+02 F= -.88095104E+02 E0= -.88095104E+02  EK= 0.98401E+00 SP= 0.00E+00 SK= 0.00E+00
    449 T=   405. E= -.87110512E+02 F= -.88105162E+02 E0= -.88105162E+02  EK= 0.99465E+00 SP= 0.00E+00 SK= 0.00E+00
    450 T=   413. E= -.87095606E+02 F= -.88109719E+02 E0= -.88109719E+02  EK= 0.10141E+01 SP= 0.00E+00 SK= 0.00E+00
    451 T=   411. E= -.87084644E+02 F= -.88094489E+02 E0= -.88094489E+02  EK= 0.10098E+01 SP= 0.00E+00 SK= 0.00E+00
    452 T=   403. E= -.87072876E+02 F= -.88062606E+02 E0= -.88062606E+02  EK= 0.98973E+00 SP= 0.00E+00 SK= 0.00E+00
    453 T=   378. E= -.87085534E+02 F= -.88014161E+02 E0= -.88014161E+02  EK= 0.92863E+00 SP= 0.00E+00 SK= 0.00E+00
    454 T=   357. E= -.87087650E+02 F= -.87964716E+02 E0= -.87964716E+02  EK= 0.87707E+00 SP= 0.00E+00 SK= 0.00E+00
    455 T=   334. E= -.87098764E+02 F= -.87919509E+02 E0= -.87919509E+02  EK= 0.82074E+00 SP= 0.00E+00 SK= 0.00E+00
    456 T=   318. E= -.87117434E+02 F= -.87899468E+02 E0= -.87899468E+02  EK= 0.78203E+00 SP= 0.00E+00 SK= 0.00E+00
    457 T=   325. E= -.87097543E+02 F= -.87896564E+02 E0= -.87896564E+02  EK= 0.79902E+00 SP= 0.00E+00 SK= 0.00E+00
    458 T=   340. E= -.87073672E+02 F= -.87908851E+02 E0= -.87908851E+02  EK= 0.83518E+00 SP= 0.00E+00 SK= 0.00E+00
    459 T=   358. E= -.87063724E+02 F= -.87942010E+02 E0= -.87942010E+02  EK= 0.87829E+00 SP= 0.00E+00 SK= 0.00E+00
    460 T=   381. E= -.87063999E+02 F= -.87999185E+02 E0= -.87999185E+02  EK= 0.93519E+00 SP= 0.00E+00 SK= 0.00E+00
    461 T=   407. E= -.87071686E+02 F= -.88071482E+02 E0= -.88071482E+02  EK= 0.99980E+00 SP= 0.00E+00 SK= 0.00E+00
    462 T=   430. E= -.87094230E+02 F= -.88149615E+02 E0= -.88149615E+02  EK= 0.10554E+01 SP= 0.00E+00 SK= 0.00E+00
    463 T=   457. E= -.87095041E+02 F= -.88216281E+02 E0= -.88216281E+02  EK= 0.11212E+01 SP= 0.00E+00 SK= 0.00E+00
    464 T=   486. E= -.87077776E+02 F= -.88270481E+02 E0= -.88270481E+02  EK= 0.11927E+01 SP= 0.00E+00 SK= 0.00E+00
    465 T=   487. E= -.87106115E+02 F= -.88301062E+02 E0= -.88301062E+02  EK= 0.11949E+01 SP= 0.00E+00 SK= 0.00E+00
    466 T=   481. E= -.87123474E+02 F= -.88304287E+02 E0= -.88304287E+02  EK= 0.11808E+01 SP= 0.00E+00 SK= 0.00E+00
    467 T=   479. E= -.87104075E+02 F= -.88281250E+02 E0= -.88281250E+02  EK= 0.11772E+01 SP= 0.00E+00 SK= 0.00E+00
    468 T=   470. E= -.87090077E+02 F= -.88243641E+02 E0= -.88243641E+02  EK= 0.11536E+01 SP= 0.00E+00 SK= 0.00E+00
    469 T=   450. E= -.87089556E+02 F= -.88194192E+02 E0= -.88194192E+02  EK= 0.11046E+01 SP= 0.00E+00 SK= 0.00E+00
    470 T=   424. E= -.87090629E+02 F= -.88133167E+02 E0= -.88133167E+02  EK= 0.10425E+01 SP= 0.00E+00 SK= 0.00E+00
    471 T=   406. E= -.87084859E+02 F= -.88082569E+02 E0= -.88082569E+02  EK= 0.99771E+00 SP= 0.00E+00 SK= 0.00E+00
    472 T=   383. E= -.87099474E+02 F= -.88039372E+02 E0= -.88039372E+02  EK= 0.93990E+00 SP= 0.00E+00 SK= 0.00E+00
    473 T=   364. E= -.87113734E+02 F= -.88008023E+02 E0= -.88008023E+02  EK= 0.89429E+00 SP= 0.00E+00 SK= 0.00E+00
    474 T=   354. E= -.87128626E+02 F= -.87997741E+02 E0= -.87997741E+02  EK= 0.86911E+00 SP= 0.00E+00 SK= 0.00E+00
    475 T=   341. E= -.87152280E+02 F= -.87988720E+02 E0= -.87988720E+02  EK= 0.83644E+00 SP= 0.00E+00 SK= 0.00E+00
    476 T=   339. E= -.87142520E+02 F= -.87974279E+02 E0= -.87974279E+02  EK= 0.83176E+00 SP= 0.00E+00 SK= 0.00E+00
[...]
   9829 T=   516. E= -.86670763E+02 F= -.87937753E+02 E0= -.87937753E+02  EK= 0.12670E+01 SP= 0.00E+00 SK= 0.00E+00
   9830 T=   523. E= -.86636135E+02 F= -.87920002E+02 E0= -.87920002E+02  EK= 0.12839E+01 SP= 0.00E+00 SK= 0.00E+00
   9831 T=   509. E= -.86625171E+02 F= -.87875909E+02 E0= -.87875909E+02  EK= 0.12507E+01 SP= 0.00E+00 SK= 0.00E+00
   9832 T=   486. E= -.86621119E+02 F= -.87814651E+02 E0= -.87814651E+02  EK= 0.11935E+01 SP= 0.00E+00 SK= 0.00E+00
   9833 T=   466. E= -.86606707E+02 F= -.87752356E+02 E0= -.87752356E+02  EK= 0.11456E+01 SP= 0.00E+00 SK= 0.00E+00
   9834 T=   450. E= -.86591122E+02 F= -.87695106E+02 E0= -.87695106E+02  EK= 0.11040E+01 SP= 0.00E+00 SK= 0.00E+00
   9835 T=   444. E= -.86566833E+02 F= -.87656592E+02 E0= -.87656592E+02  EK= 0.10898E+01 SP= 0.00E+00 SK= 0.00E+00
   9836 T=   441. E= -.86559620E+02 F= -.87642654E+02 E0= -.87642654E+02  EK= 0.10830E+01 SP= 0.00E+00 SK= 0.00E+00
   9837 T=   448. E= -.86543279E+02 F= -.87644181E+02 E0= -.87644181E+02  EK= 0.11009E+01 SP= 0.00E+00 SK= 0.00E+00
   9838 T=   455. E= -.86537879E+02 F= -.87655628E+02 E0= -.87655628E+02  EK= 0.11177E+01 SP= 0.00E+00 SK= 0.00E+00
   9839 T=   461. E= -.86536193E+02 F= -.87668835E+02 E0= -.87668835E+02  EK= 0.11326E+01 SP= 0.00E+00 SK= 0.00E+00
   9840 T=   464. E= -.86548695E+02 F= -.87688080E+02 E0= -.87688080E+02  EK= 0.11394E+01 SP= 0.00E+00 SK= 0.00E+00
   9841 T=   472. E= -.86546823E+02 F= -.87706189E+02 E0= -.87706189E+02  EK= 0.11594E+01 SP= 0.00E+00 SK= 0.00E+00
   9842 T=   486. E= -.86537647E+02 F= -.87731745E+02 E0= -.87731745E+02  EK= 0.11941E+01 SP= 0.00E+00 SK= 0.00E+00
   9843 T=   496. E= -.86551811E+02 F= -.87770407E+02 E0= -.87770407E+02  EK= 0.12186E+01 SP= 0.00E+00 SK= 0.00E+00
   9844 T=   520. E= -.86557260E+02 F= -.87834387E+02 E0= -.87834387E+02  EK= 0.12771E+01 SP= 0.00E+00 SK= 0.00E+00
   9845 T=   554. E= -.86553105E+02 F= -.87912907E+02 E0= -.87912907E+02  EK= 0.13598E+01 SP= 0.00E+00 SK= 0.00E+00
   9846 T=   595. E= -.86537243E+02 F= -.87997610E+02 E0= -.87997610E+02  EK= 0.14604E+01 SP= 0.00E+00 SK= 0.00E+00
   9847 T=   625. E= -.86532256E+02 F= -.88066289E+02 E0= -.88066289E+02  EK= 0.15340E+01 SP= 0.00E+00 SK= 0.00E+00
   9848 T=   640. E= -.86544662E+02 F= -.88116542E+02 E0= -.88116542E+02  EK= 0.15719E+01 SP= 0.00E+00 SK= 0.00E+00
   9849 T=   627. E= -.86580983E+02 F= -.88120516E+02 E0= -.88120516E+02  EK= 0.15395E+01 SP= 0.00E+00 SK= 0.00E+00
   9850 T=   609. E= -.86591870E+02 F= -.88087714E+02 E0= -.88087714E+02  EK= 0.14958E+01 SP= 0.00E+00 SK= 0.00E+00
   9851 T=   590. E= -.86577480E+02 F= -.88026372E+02 E0= -.88026372E+02  EK= 0.14489E+01 SP= 0.00E+00 SK= 0.00E+00
   9852 T=   546. E= -.86603214E+02 F= -.87944091E+02 E0= -.87944091E+02  EK= 0.13409E+01 SP= 0.00E+00 SK= 0.00E+00
   9853 T=   499. E= -.86622278E+02 F= -.87847888E+02 E0= -.87847888E+02  EK= 0.12256E+01 SP= 0.00E+00 SK= 0.00E+00
   9854 T=   456. E= -.86630612E+02 F= -.87750121E+02 E0= -.87750121E+02  EK= 0.11195E+01 SP= 0.00E+00 SK= 0.00E+00
   9855 T=   422. E= -.86627972E+02 F= -.87664469E+02 E0= -.87664469E+02  EK= 0.10365E+01 SP= 0.00E+00 SK= 0.00E+00
   9856 T=   405. E= -.86607477E+02 F= -.87602044E+02 E0= -.87602044E+02  EK= 0.99457E+00 SP= 0.00E+00 SK= 0.00E+00
   9857 T=   388. E= -.86613219E+02 F= -.87566408E+02 E0= -.87566408E+02  EK= 0.95319E+00 SP= 0.00E+00 SK= 0.00E+00
   9858 T=   385. E= -.86609319E+02 F= -.87554560E+02 E0= -.87554560E+02  EK= 0.94524E+00 SP= 0.00E+00 SK= 0.00E+00
   9859 T=   393. E= -.86606512E+02 F= -.87572044E+02 E0= -.87572044E+02  EK= 0.96553E+00 SP= 0.00E+00 SK= 0.00E+00
   9860 T=   400. E= -.86621581E+02 F= -.87604527E+02 E0= -.87604527E+02  EK= 0.98295E+00 SP= 0.00E+00 SK= 0.00E+00
   9861 T=   420. E= -.86612983E+02 F= -.87645642E+02 E0= -.87645642E+02  EK= 0.10327E+01 SP= 0.00E+00 SK= 0.00E+00
   9862 T=   450. E= -.86586701E+02 F= -.87691399E+02 E0= -.87691399E+02  EK= 0.11047E+01 SP= 0.00E+00 SK= 0.00E+00
   9863 T=   469. E= -.86580014E+02 F= -.87731931E+02 E0= -.87731931E+02  EK= 0.11519E+01 SP= 0.00E+00 SK= 0.00E+00
   9864 T=   485. E= -.86567139E+02 F= -.87759312E+02 E0= -.87759312E+02  EK= 0.11922E+01 SP= 0.00E+00 SK= 0.00E+00
   9865 T=   498. E= -.86547362E+02 F= -.87769364E+02 E0= -.87769364E+02  EK= 0.12220E+01 SP= 0.00E+00 SK= 0.00E+00
   9866 T=   492. E= -.86553482E+02 F= -.87762724E+02 E0= -.87762724E+02  EK= 0.12092E+01 SP= 0.00E+00 SK= 0.00E+00
   9867 T=   484. E= -.86562293E+02 F= -.87750045E+02 E0= -.87750045E+02  EK= 0.11878E+01 SP= 0.00E+00 SK= 0.00E+00
   9868 T=   473. E= -.86577513E+02 F= -.87738646E+02 E0= -.87738646E+02  EK= 0.11611E+01 SP= 0.00E+00 SK= 0.00E+00
   9869 T=   467. E= -.86586112E+02 F= -.87733924E+02 E0= -.87733924E+02  EK= 0.11478E+01 SP= 0.00E+00 SK= 0.00E+00
   9870 T=   463. E= -.86594644E+02 F= -.87732300E+02 E0= -.87732300E+02  EK= 0.11377E+01 SP= 0.00E+00 SK= 0.00E+00
   9871 T=   457. E= -.86606762E+02 F= -.87728629E+02 E0= -.87728629E+02  EK= 0.11219E+01 SP= 0.00E+00 SK= 0.00E+00
   9872 T=   448. E= -.86623597E+02 F= -.87723066E+02 E0= -.87723066E+02  EK= 0.10995E+01 SP= 0.00E+00 SK= 0.00E+00
   9873 T=   432. E= -.86636747E+02 F= -.87698457E+02 E0= -.87698457E+02  EK= 0.10617E+01 SP= 0.00E+00 SK= 0.00E+00
   9874 T=   407. E= -.86653668E+02 F= -.87652362E+02 E0= -.87652362E+02  EK= 0.99869E+00 SP= 0.00E+00 SK= 0.00E+00
   9875 T=   371. E= -.86683748E+02 F= -.87594058E+02 E0= -.87594058E+02  EK= 0.91031E+00 SP= 0.00E+00 SK= 0.00E+00
   9876 T=   345. E= -.86688013E+02 F= -.87536190E+02 E0= -.87536190E+02  EK= 0.84818E+00 SP= 0.00E+00 SK= 0.00E+00
   9877 T=   334. E= -.86669683E+02 F= -.87489777E+02 E0= -.87489777E+02  EK= 0.82009E+00 SP= 0.00E+00 SK= 0.00E+00
   9878 T=   329. E= -.86650419E+02 F= -.87458517E+02 E0= -.87458517E+02  EK= 0.80810E+00 SP= 0.00E+00 SK= 0.00E+00
   9879 T=   321. E= -.86662240E+02 F= -.87451590E+02 E0= -.87451590E+02  EK= 0.78935E+00 SP= 0.00E+00 SK= 0.00E+00
   9880 T=   324. E= -.86672586E+02 F= -.87467961E+02 E0= -.87467961E+02  EK= 0.79538E+00 SP= 0.00E+00 SK= 0.00E+00
   9881 T=   345. E= -.86664760E+02 F= -.87511345E+02 E0= -.87511345E+02  EK= 0.84659E+00 SP= 0.00E+00 SK= 0.00E+00
   9882 T=   381. E= -.86628659E+02 F= -.87564960E+02 E0= -.87564960E+02  EK= 0.93630E+00 SP= 0.00E+00 SK= 0.00E+00
   9883 T=   415. E= -.86606141E+02 F= -.87626483E+02 E0= -.87626483E+02  EK= 0.10203E+01 SP= 0.00E+00 SK= 0.00E+00
   9884 T=   434. E= -.86622675E+02 F= -.87688116E+02 E0= -.87688116E+02  EK= 0.10654E+01 SP= 0.00E+00 SK= 0.00E+00
   9885 T=   456. E= -.86619295E+02 F= -.87739988E+02 E0= -.87739988E+02  EK= 0.11207E+01 SP= 0.00E+00 SK= 0.00E+00
   9886 T=   485. E= -.86588702E+02 F= -.87780227E+02 E0= -.87780227E+02  EK= 0.11915E+01 SP= 0.00E+00 SK= 0.00E+00
   9887 T=   510. E= -.86551440E+02 F= -.87803901E+02 E0= -.87803901E+02  EK= 0.12525E+01 SP= 0.00E+00 SK= 0.00E+00
   9888 T=   513. E= -.86552300E+02 F= -.87811529E+02 E0= -.87811529E+02  EK= 0.12592E+01 SP= 0.00E+00 SK= 0.00E+00
   9889 T=   503. E= -.86572242E+02 F= -.87807329E+02 E0= -.87807329E+02  EK= 0.12351E+01 SP= 0.00E+00 SK= 0.00E+00
   9890 T=   497. E= -.86576895E+02 F= -.87798607E+02 E0= -.87798607E+02  EK= 0.12217E+01 SP= 0.00E+00 SK= 0.00E+00
   9891 T=   494. E= -.86589934E+02 F= -.87802871E+02 E0= -.87802871E+02  EK= 0.12129E+01 SP= 0.00E+00 SK= 0.00E+00
   9892 T=   492. E= -.86611786E+02 F= -.87820390E+02 E0= -.87820390E+02  EK= 0.12086E+01 SP= 0.00E+00 SK= 0.00E+00
   9893 T=   493. E= -.86633712E+02 F= -.87845007E+02 E0= -.87845007E+02  EK= 0.12113E+01 SP= 0.00E+00 SK= 0.00E+00
   9894 T=   503. E= -.86637814E+02 F= -.87873689E+02 E0= -.87873689E+02  EK= 0.12359E+01 SP= 0.00E+00 SK= 0.00E+00
   9895 T=   507. E= -.86647207E+02 F= -.87893216E+02 E0= -.87893216E+02  EK= 0.12460E+01 SP= 0.00E+00 SK= 0.00E+00
   9896 T=   503. E= -.86654884E+02 F= -.87890166E+02 E0= -.87890166E+02  EK= 0.12353E+01 SP= 0.00E+00 SK= 0.00E+00
   9897 T=   494. E= -.86647502E+02 F= -.87860719E+02 E0= -.87860719E+02  EK= 0.12132E+01 SP= 0.00E+00 SK= 0.00E+00
   9898 T=   467. E= -.86662443E+02 F= -.87809059E+02 E0= -.87809059E+02  EK= 0.11466E+01 SP= 0.00E+00 SK= 0.00E+00
   9899 T=   442. E= -.86660245E+02 F= -.87745128E+02 E0= -.87745128E+02  EK= 0.10849E+01 SP= 0.00E+00 SK= 0.00E+00
   9900 T=   421. E= -.86639902E+02 F= -.87673227E+02 E0= -.87673227E+02  EK= 0.10333E+01 SP= 0.00E+00 SK= 0.00E+00
   9901 T=   390. E= -.86647777E+02 F= -.87605964E+02 E0= -.87605964E+02  EK= 0.95819E+00 SP= 0.00E+00 SK= 0.00E+00
   9902 T=   368. E= -.86655791E+02 F= -.87559747E+02 E0= -.87559747E+02  EK= 0.90396E+00 SP= 0.00E+00 SK= 0.00E+00
   9903 T=   363. E= -.86651777E+02 F= -.87543642E+02 E0= -.87543642E+02  EK= 0.89186E+00 SP= 0.00E+00 SK= 0.00E+00
   9904 T=   370. E= -.86651160E+02 F= -.87559185E+02 E0= -.87559185E+02  EK= 0.90802E+00 SP= 0.00E+00 SK= 0.00E+00
   9905 T=   389. E= -.86662762E+02 F= -.87617343E+02 E0= -.87617343E+02  EK= 0.95458E+00 SP= 0.00E+00 SK= 0.00E+00
   9906 T=   411. E= -.86693881E+02 F= -.87703323E+02 E0= -.87703323E+02  EK= 0.10094E+01 SP= 0.00E+00 SK= 0.00E+00
   9907 T=   450. E= -.86693697E+02 F= -.87799049E+02 E0= -.87799049E+02  EK= 0.11054E+01 SP= 0.00E+00 SK= 0.00E+00
   9908 T=   490. E= -.86698682E+02 F= -.87903160E+02 E0= -.87903160E+02  EK= 0.12045E+01 SP= 0.00E+00 SK= 0.00E+00
   9909 T=   528. E= -.86698468E+02 F= -.87995325E+02 E0= -.87995325E+02  EK= 0.12969E+01 SP= 0.00E+00 SK= 0.00E+00
   9910 T=   553. E= -.86710965E+02 F= -.88069476E+02 E0= -.88069476E+02  EK= 0.13585E+01 SP= 0.00E+00 SK= 0.00E+00
   9911 T=   560. E= -.86744410E+02 F= -.88119219E+02 E0= -.88119219E+02  EK= 0.13748E+01 SP= 0.00E+00 SK= 0.00E+00
   9912 T=   567. E= -.86748997E+02 F= -.88142065E+02 E0= -.88142065E+02  EK= 0.13931E+01 SP= 0.00E+00 SK= 0.00E+00
   9913 T=   569. E= -.86745083E+02 F= -.88141976E+02 E0= -.88141976E+02  EK= 0.13969E+01 SP= 0.00E+00 SK= 0.00E+00
   9914 T=   561. E= -.86750926E+02 F= -.88128674E+02 E0= -.88128674E+02  EK= 0.13777E+01 SP= 0.00E+00 SK= 0.00E+00
   9915 T=   555. E= -.86733745E+02 F= -.88095714E+02 E0= -.88095714E+02  EK= 0.13620E+01 SP= 0.00E+00 SK= 0.00E+00
   9916 T=   546. E= -.86697104E+02 F= -.88037843E+02 E0= -.88037843E+02  EK= 0.13407E+01 SP= 0.00E+00 SK= 0.00E+00
   9917 T=   524. E= -.86682603E+02 F= -.87968702E+02 E0= -.87968702E+02  EK= 0.12861E+01 SP= 0.00E+00 SK= 0.00E+00
   9918 T=   502. E= -.86668201E+02 F= -.87901771E+02 E0= -.87901771E+02  EK= 0.12336E+01 SP= 0.00E+00 SK= 0.00E+00
   9919 T=   486. E= -.86643230E+02 F= -.87837838E+02 E0= -.87837838E+02  EK= 0.11946E+01 SP= 0.00E+00 SK= 0.00E+00
   9920 T=   476. E= -.86617055E+02 F= -.87786955E+02 E0= -.87786955E+02  EK= 0.11699E+01 SP= 0.00E+00 SK= 0.00E+00
   9921 T=   471. E= -.86588413E+02 F= -.87744469E+02 E0= -.87744469E+02  EK= 0.11561E+01 SP= 0.00E+00 SK= 0.00E+00
   9922 T=   456. E= -.86579891E+02 F= -.87700067E+02 E0= -.87700067E+02  EK= 0.11202E+01 SP= 0.00E+00 SK= 0.00E+00
   9923 T=   449. E= -.86554288E+02 F= -.87657856E+02 E0= -.87657856E+02  EK= 0.11036E+01 SP= 0.00E+00 SK= 0.00E+00
   9924 T=   455. E= -.86498929E+02 F= -.87615528E+02 E0= -.87615528E+02  EK= 0.11166E+01 SP= 0.00E+00 SK= 0.00E+00
   9925 T=   448. E= -.86479974E+02 F= -.87579031E+02 E0= -.87579031E+02  EK= 0.10991E+01 SP= 0.00E+00 SK= 0.00E+00
   9926 T=   426. E= -.86501563E+02 F= -.87548671E+02 E0= -.87548671E+02  EK= 0.10471E+01 SP= 0.00E+00 SK= 0.00E+00
   9927 T=   413. E= -.86518453E+02 F= -.87532824E+02 E0= -.87532824E+02  EK= 0.10144E+01 SP= 0.00E+00 SK= 0.00E+00
   9928 T=   425. E= -.86499118E+02 F= -.87542859E+02 E0= -.87542859E+02  EK= 0.10437E+01 SP= 0.00E+00 SK= 0.00E+00
   9929 T=   443. E= -.86477139E+02 F= -.87565456E+02 E0= -.87565456E+02  EK= 0.10883E+01 SP= 0.00E+00 SK= 0.00E+00
   9930 T=   465. E= -.86466016E+02 F= -.87607242E+02 E0= -.87607242E+02  EK= 0.11412E+01 SP= 0.00E+00 SK= 0.00E+00
   9931 T=   482. E= -.86470196E+02 F= -.87653151E+02 E0= -.87653151E+02  EK= 0.11830E+01 SP= 0.00E+00 SK= 0.00E+00
   9932 T=   505. E= -.86459641E+02 F= -.87700998E+02 E0= -.87700998E+02  EK= 0.12414E+01 SP= 0.00E+00 SK= 0.00E+00
   9933 T=   526. E= -.86446008E+02 F= -.87738531E+02 E0= -.87738531E+02  EK= 0.12925E+01 SP= 0.00E+00 SK= 0.00E+00
   9934 T=   539. E= -.86442203E+02 F= -.87765782E+02 E0= -.87765782E+02  EK= 0.13236E+01 SP= 0.00E+00 SK= 0.00E+00
   9935 T=   543. E= -.86447382E+02 F= -.87780354E+02 E0= -.87780354E+02  EK= 0.13330E+01 SP= 0.00E+00 SK= 0.00E+00
   9936 T=   523. E= -.86480038E+02 F= -.87765350E+02 E0= -.87765350E+02  EK= 0.12853E+01 SP= 0.00E+00 SK= 0.00E+00
   9937 T=   504. E= -.86491590E+02 F= -.87729353E+02 E0= -.87729353E+02  EK= 0.12378E+01 SP= 0.00E+00 SK= 0.00E+00
   9938 T=   494. E= -.86459788E+02 F= -.87673652E+02 E0= -.87673652E+02  EK= 0.12139E+01 SP= 0.00E+00 SK= 0.00E+00
   9939 T=   485. E= -.86422653E+02 F= -.87614485E+02 E0= -.87614485E+02  EK= 0.11918E+01 SP= 0.00E+00 SK= 0.00E+00
   9940 T=   474. E= -.86396389E+02 F= -.87560763E+02 E0= -.87560763E+02  EK= 0.11644E+01 SP= 0.00E+00 SK= 0.00E+00
   9941 T=   471. E= -.86358864E+02 F= -.87514794E+02 E0= -.87514794E+02  EK= 0.11559E+01 SP= 0.00E+00 SK= 0.00E+00
   9942 T=   470. E= -.86327537E+02 F= -.87480611E+02 E0= -.87480611E+02  EK= 0.11531E+01 SP= 0.00E+00 SK= 0.00E+00
   9943 T=   460. E= -.86331366E+02 F= -.87461665E+02 E0= -.87461665E+02  EK= 0.11303E+01 SP= 0.00E+00 SK= 0.00E+00
   9944 T=   446. E= -.86349378E+02 F= -.87445732E+02 E0= -.87445732E+02  EK= 0.10964E+01 SP= 0.00E+00 SK= 0.00E+00
   9945 T=   440. E= -.86351708E+02 F= -.87431592E+02 E0= -.87431592E+02  EK= 0.10799E+01 SP= 0.00E+00 SK= 0.00E+00
   9946 T=   434. E= -.86359769E+02 F= -.87425043E+02 E0= -.87425043E+02  EK= 0.10653E+01 SP= 0.00E+00 SK= 0.00E+00
   9947 T=   430. E= -.86372373E+02 F= -.87427267E+02 E0= -.87427267E+02  EK= 0.10549E+01 SP= 0.00E+00 SK= 0.00E+00
   9948 T=   414. E= -.86421560E+02 F= -.87438312E+02 E0= -.87438312E+02  EK= 0.10168E+01 SP= 0.00E+00 SK= 0.00E+00
   9949 T=   406. E= -.86474368E+02 F= -.87470474E+02 E0= -.87470474E+02  EK= 0.99611E+00 SP= 0.00E+00 SK= 0.00E+00
   9950 T=   421. E= -.86486735E+02 F= -.87520338E+02 E0= -.87520338E+02  EK= 0.10336E+01 SP= 0.00E+00 SK= 0.00E+00
   9951 T=   443. E= -.86498858E+02 F= -.87587186E+02 E0= -.87587186E+02  EK= 0.10883E+01 SP= 0.00E+00 SK= 0.00E+00
   9952 T=   474. E= -.86501603E+02 F= -.87664856E+02 E0= -.87664856E+02  EK= 0.11633E+01 SP= 0.00E+00 SK= 0.00E+00
   9953 T=   508. E= -.86487738E+02 F= -.87735307E+02 E0= -.87735307E+02  EK= 0.12476E+01 SP= 0.00E+00 SK= 0.00E+00
   9954 T=   528. E= -.86498188E+02 F= -.87795380E+02 E0= -.87795380E+02  EK= 0.12972E+01 SP= 0.00E+00 SK= 0.00E+00
   9955 T=   547. E= -.86490321E+02 F= -.87834334E+02 E0= -.87834334E+02  EK= 0.13440E+01 SP= 0.00E+00 SK= 0.00E+00
   9956 T=   568. E= -.86459755E+02 F= -.87854618E+02 E0= -.87854618E+02  EK= 0.13949E+01 SP= 0.00E+00 SK= 0.00E+00
   9957 T=   573. E= -.86444876E+02 F= -.87852660E+02 E0= -.87852660E+02  EK= 0.14078E+01 SP= 0.00E+00 SK= 0.00E+00
   9958 T=   573. E= -.86440643E+02 F= -.87848209E+02 E0= -.87848209E+02  EK= 0.14076E+01 SP= 0.00E+00 SK= 0.00E+00
   9959 T=   565. E= -.86439946E+02 F= -.87826652E+02 E0= -.87826652E+02  EK= 0.13867E+01 SP= 0.00E+00 SK= 0.00E+00
   9960 T=   534. E= -.86482623E+02 F= -.87793024E+02 E0= -.87793024E+02  EK= 0.13104E+01 SP= 0.00E+00 SK= 0.00E+00
   9961 T=   494. E= -.86537869E+02 F= -.87750319E+02 E0= -.87750319E+02  EK= 0.12125E+01 SP= 0.00E+00 SK= 0.00E+00
   9962 T=   464. E= -.86567599E+02 F= -.87706855E+02 E0= -.87706855E+02  EK= 0.11393E+01 SP= 0.00E+00 SK= 0.00E+00
   9963 T=   442. E= -.86583269E+02 F= -.87668878E+02 E0= -.87668878E+02  EK= 0.10856E+01 SP= 0.00E+00 SK= 0.00E+00
   9964 T=   434. E= -.86576900E+02 F= -.87643401E+02 E0= -.87643401E+02  EK= 0.10665E+01 SP= 0.00E+00 SK= 0.00E+00
   9965 T=   439. E= -.86556589E+02 F= -.87635198E+02 E0= -.87635198E+02  EK= 0.10786E+01 SP= 0.00E+00 SK= 0.00E+00
   9966 T=   444. E= -.86551431E+02 F= -.87641681E+02 E0= -.87641681E+02  EK= 0.10903E+01 SP= 0.00E+00 SK= 0.00E+00
   9967 T=   458. E= -.86529092E+02 F= -.87653170E+02 E0= -.87653170E+02  EK= 0.11241E+01 SP= 0.00E+00 SK= 0.00E+00
   9968 T=   470. E= -.86503516E+02 F= -.87658246E+02 E0= -.87658246E+02  EK= 0.11547E+01 SP= 0.00E+00 SK= 0.00E+00
   9969 T=   475. E= -.86486647E+02 F= -.87652145E+02 E0= -.87652145E+02  EK= 0.11655E+01 SP= 0.00E+00 SK= 0.00E+00
   9970 T=   479. E= -.86457708E+02 F= -.87635003E+02 E0= -.87635003E+02  EK= 0.11773E+01 SP= 0.00E+00 SK= 0.00E+00
   9971 T=   461. E= -.86472553E+02 F= -.87604830E+02 E0= -.87604830E+02  EK= 0.11323E+01 SP= 0.00E+00 SK= 0.00E+00
   9972 T=   442. E= -.86505208E+02 F= -.87591732E+02 E0= -.87591732E+02  EK= 0.10865E+01 SP= 0.00E+00 SK= 0.00E+00
   9973 T=   428. E= -.86528336E+02 F= -.87579508E+02 E0= -.87579508E+02  EK= 0.10512E+01 SP= 0.00E+00 SK= 0.00E+00
   9974 T=   426. E= -.86533777E+02 F= -.87580713E+02 E0= -.87580713E+02  EK= 0.10469E+01 SP= 0.00E+00 SK= 0.00E+00
   9975 T=   424. E= -.86539742E+02 F= -.87581338E+02 E0= -.87581338E+02  EK= 0.10416E+01 SP= 0.00E+00 SK= 0.00E+00
   9976 T=   433. E= -.86532363E+02 F= -.87595781E+02 E0= -.87595781E+02  EK= 0.10634E+01 SP= 0.00E+00 SK= 0.00E+00
   9977 T=   459. E= -.86498425E+02 F= -.87625635E+02 E0= -.87625635E+02  EK= 0.11272E+01 SP= 0.00E+00 SK= 0.00E+00
   9978 T=   478. E= -.86483603E+02 F= -.87657261E+02 E0= -.87657261E+02  EK= 0.11737E+01 SP= 0.00E+00 SK= 0.00E+00
   9979 T=   488. E= -.86482934E+02 F= -.87681601E+02 E0= -.87681601E+02  EK= 0.11987E+01 SP= 0.00E+00 SK= 0.00E+00
   9980 T=   492. E= -.86495012E+02 F= -.87702248E+02 E0= -.87702248E+02  EK= 0.12072E+01 SP= 0.00E+00 SK= 0.00E+00
   9981 T=   490. E= -.86516876E+02 F= -.87719880E+02 E0= -.87719880E+02  EK= 0.12030E+01 SP= 0.00E+00 SK= 0.00E+00
   9982 T=   511. E= -.86484342E+02 F= -.87739236E+02 E0= -.87739236E+02  EK= 0.12549E+01 SP= 0.00E+00 SK= 0.00E+00
   9983 T=   527. E= -.86470813E+02 F= -.87764323E+02 E0= -.87764323E+02  EK= 0.12935E+01 SP= 0.00E+00 SK= 0.00E+00
   9984 T=   523. E= -.86503052E+02 F= -.87788723E+02 E0= -.87788723E+02  EK= 0.12857E+01 SP= 0.00E+00 SK= 0.00E+00
   9985 T=   515. E= -.86545902E+02 F= -.87809685E+02 E0= -.87809685E+02  EK= 0.12638E+01 SP= 0.00E+00 SK= 0.00E+00
   9986 T=   495. E= -.86604994E+02 F= -.87819763E+02 E0= -.87819763E+02  EK= 0.12148E+01 SP= 0.00E+00 SK= 0.00E+00
   9987 T=   476. E= -.86654516E+02 F= -.87824386E+02 E0= -.87824386E+02  EK= 0.11699E+01 SP= 0.00E+00 SK= 0.00E+00
   9988 T=   481. E= -.86652637E+02 F= -.87834151E+02 E0= -.87834151E+02  EK= 0.11815E+01 SP= 0.00E+00 SK= 0.00E+00
   9989 T=   502. E= -.86606713E+02 F= -.87839803E+02 E0= -.87839803E+02  EK= 0.12331E+01 SP= 0.00E+00 SK= 0.00E+00
   9990 T=   509. E= -.86584905E+02 F= -.87834750E+02 E0= -.87834750E+02  EK= 0.12498E+01 SP= 0.00E+00 SK= 0.00E+00
   9991 T=   498. E= -.86589058E+02 F= -.87811913E+02 E0= -.87811913E+02  EK= 0.12229E+01 SP= 0.00E+00 SK= 0.00E+00
   9992 T=   480. E= -.86593765E+02 F= -.87773217E+02 E0= -.87773217E+02  EK= 0.11795E+01 SP= 0.00E+00 SK= 0.00E+00
   9993 T=   466. E= -.86595276E+02 F= -.87739198E+02 E0= -.87739198E+02  EK= 0.11439E+01 SP= 0.00E+00 SK= 0.00E+00
   9994 T=   453. E= -.86596263E+02 F= -.87709750E+02 E0= -.87709750E+02  EK= 0.11135E+01 SP= 0.00E+00 SK= 0.00E+00
   9995 T=   448. E= -.86592280E+02 F= -.87692956E+02 E0= -.87692956E+02  EK= 0.11007E+01 SP= 0.00E+00 SK= 0.00E+00
   9996 T=   455. E= -.86559500E+02 F= -.87677552E+02 E0= -.87677552E+02  EK= 0.11181E+01 SP= 0.00E+00 SK= 0.00E+00
   9997 T=   461. E= -.86542536E+02 F= -.87674166E+02 E0= -.87674166E+02  EK= 0.11316E+01 SP= 0.00E+00 SK= 0.00E+00
   9998 T=   456. E= -.86556158E+02 F= -.87675409E+02 E0= -.87675409E+02  EK= 0.11193E+01 SP= 0.00E+00 SK= 0.00E+00
   9999 T=   451. E= -.86571842E+02 F= -.87678900E+02 E0= -.87678900E+02  EK= 0.11071E+01 SP= 0.00E+00 SK= 0.00E+00
  10000 T=   451. E= -.86577490E+02 F= -.87684167E+02 E0= -.87684167E+02  EK= 0.11067E+01 SP= 0.00E+00 SK= 0.00E+00
