  84  84   0   0
  0.7993478E+01  0.1040200E-08  0.8480823E-09  0.7690874E-09  0.5000000E-15
    300.0000000000000     
  CAR 
 unknown system                          
     11.47769063    -23.64665830  301      0.13545295      1.00000000
    -23.647  0.0000E+00  0.0000E+00
    -23.530  0.0000E+00  0.0000E+00
    -23.412  0.0000E+00  0.0000E+00
    -23.295  0.0000E+00  0.0000E+00
    -23.178  0.0000E+00  0.0000E+00
    -23.061  0.0000E+00  0.0000E+00
    -22.944  0.0000E+00  0.0000E+00
    -22.827  0.0000E+00  0.0000E+00
    -22.710  0.0000E+00  0.0000E+00
    -22.593  0.0000E+00  0.0000E+00
    -22.476  0.0000E+00  0.0000E+00
    -22.359  0.0000E+00  0.0000E+00
    -22.242  0.4648E-06  0.5458E-07
    -22.125  0.2937E+00  0.3450E-01
    -22.008  0.1480E+02  0.1773E+01
    -21.890  0.7341E+01  0.2636E+01
    -21.773  0.2690E+02  0.5795E+01
    -21.656  0.5045E+01  0.6388E+01
    -21.539  0.1360E+02  0.7986E+01
    -21.422  0.1212E+00  0.8000E+01
    -21.305  0.7060E-07  0.8000E+01
    -21.188  0.0000E+00  0.8000E+01
    -21.071  0.0000E+00  0.8000E+01
    -20.954  0.4163E-08  0.8000E+01
    -20.837  0.2791E-01  0.8003E+01
    -20.720  0.1374E+02  0.9619E+01
    -20.603  0.3538E+02  0.1377E+02
    -20.485  0.1108E+02  0.1508E+02
    -20.368  0.1920E+02  0.1733E+02
    -20.251  0.2143E+02  0.1985E+02
    -20.134  0.2480E+02  0.2276E+02
    -20.017  0.2588E+02  0.2580E+02
    -19.900  0.3275E+02  0.2965E+02
    -19.783  0.2513E+02  0.3260E+02
    -19.666  0.1706E+02  0.3460E+02
    -19.549  0.2797E+02  0.3789E+02
    -19.432  0.2485E+01  0.3818E+02
    -19.315  0.1484E+02  0.3992E+02
    -19.198  0.6471E+00  0.4000E+02
    -19.080  0.5329E-05  0.4000E+02
    -18.963  0.0000E+00  0.4000E+02
    -18.846  0.0000E+00  0.4000E+02
    -18.729  0.0000E+00  0.4000E+02
    -18.612  0.0000E+00  0.4000E+02
    -18.495  0.0000E+00  0.4000E+02
    -18.378  0.0000E+00  0.4000E+02
    -18.261  0.0000E+00  0.4000E+02
    -18.144  0.0000E+00  0.4000E+02
    -18.027  0.0000E+00  0.4000E+02
    -17.910  0.0000E+00  0.4000E+02
    -17.793  0.0000E+00  0.4000E+02
    -17.676  0.0000E+00  0.4000E+02
    -17.558  0.0000E+00  0.4000E+02
    -17.441  0.0000E+00  0.4000E+02
    -17.324  0.0000E+00  0.4000E+02
    -17.207  0.0000E+00  0.4000E+02
    -17.090  0.0000E+00  0.4000E+02
    -16.973  0.0000E+00  0.4000E+02
    -16.856  0.0000E+00  0.4000E+02
    -16.739  0.0000E+00  0.4000E+02
    -16.622  0.0000E+00  0.4000E+02
    -16.505  0.0000E+00  0.4000E+02
    -16.388  0.0000E+00  0.4000E+02
    -16.271  0.0000E+00  0.4000E+02
    -16.153  0.0000E+00  0.4000E+02
    -16.036  0.0000E+00  0.4000E+02
    -15.919  0.0000E+00  0.4000E+02
    -15.802  0.0000E+00  0.4000E+02
    -15.685  0.0000E+00  0.4000E+02
    -15.568  0.0000E+00  0.4000E+02
    -15.451  0.0000E+00  0.4000E+02
    -15.334  0.0000E+00  0.4000E+02
    -15.217  0.0000E+00  0.4000E+02
    -15.100  0.1785E-12  0.4000E+02
    -14.983  0.5701E-04  0.4000E+02
    -14.866  0.6465E+00  0.4008E+02
    -14.748  0.1354E+02  0.4167E+02
    -14.631  0.1688E+02  0.4365E+02
    -14.514  0.3851E+01  0.4410E+02
    -14.397  0.2155E+02  0.4664E+02
    -14.280  0.1161E+02  0.4800E+02
    -14.163  0.1619E-01  0.4800E+02
    -14.046  0.1954E-08  0.4800E+02
    -13.929  0.3135E-04  0.4800E+02
    -13.812  0.6252E+00  0.4807E+02
    -13.695  0.1848E+02  0.5025E+02
    -13.578  0.1491E+02  0.5199E+02
    -13.461  0.2046E+00  0.5202E+02
    -13.344  0.1024E+02  0.5323E+02
    -13.226  0.2283E+02  0.5590E+02
    -13.109  0.8226E+00  0.5600E+02
    -12.992  0.1176E-04  0.5600E+02
    -12.875  0.4930E-14  0.5600E+02
    -12.758  0.0000E+00  0.5600E+02
    -12.641  0.0000E+00  0.5600E+02
    -12.524  0.0000E+00  0.5600E+02
    -12.407  0.0000E+00  0.5600E+02
    -12.290  0.1169E-09  0.5600E+02
    -12.173  0.1864E-02  0.5600E+02
    -12.056  0.1849E+01  0.5622E+02
    -11.939  0.1908E+02  0.5846E+02
    -11.821  0.1306E+02  0.5999E+02
    -11.704  0.7372E-01  0.6000E+02
    -11.587  0.2254E+01  0.6027E+02
    -11.470  0.1255E+02  0.6174E+02
    -11.353  0.3135E+01  0.6211E+02
    -11.236  0.9976E+01  0.6328E+02
    -11.119  0.1101E+02  0.6458E+02
    -11.002  0.1301E+02  0.6610E+02
    -10.885  0.1075E+02  0.6737E+02
    -10.768  0.5410E+01  0.6800E+02
    -10.651  0.5434E-02  0.6800E+02
    -10.534  0.3270E-09  0.6800E+02
    -10.416  0.5941E-07  0.6800E+02
    -10.299  0.3558E-01  0.6800E+02
    -10.182  0.2813E+01  0.6834E+02
    -10.065  0.1334E+02  0.6990E+02
     -9.948  0.1692E+02  0.7189E+02
     -9.831  0.3054E+02  0.7548E+02
     -9.714  0.1368E+02  0.7709E+02
     -9.597  0.1954E+02  0.7938E+02
     -9.480  0.1852E+02  0.8156E+02
     -9.363  0.4697E+01  0.8211E+02
     -9.246  0.7106E+01  0.8294E+02
     -9.129  0.8975E+01  0.8399E+02
     -9.012  0.2503E+01  0.8429E+02
     -8.894  0.1132E+02  0.8562E+02
     -8.777  0.8391E+01  0.8661E+02
     -8.660  0.1136E+02  0.8794E+02
     -8.543  0.5297E+00  0.8800E+02
     -8.426  0.1239E+01  0.8815E+02
     -8.309  0.1003E+02  0.8933E+02
     -8.192  0.2313E+02  0.9205E+02
     -8.075  0.2141E+02  0.9456E+02
     -7.958  0.1872E+02  0.9676E+02
     -7.841  0.2203E+02  0.9934E+02
     -7.724  0.1063E+02  0.1006E+03
     -7.607  0.1515E+02  0.1024E+03
     -7.489  0.1795E+02  0.1045E+03
     -7.372  0.2532E+02  0.1075E+03
     -7.255  0.2063E+02  0.1099E+03
     -7.138  0.2844E+02  0.1132E+03
     -7.021  0.2371E+02  0.1160E+03
     -6.904  0.1431E+02  0.1177E+03
     -6.787  0.2396E+02  0.1205E+03
     -6.670  0.1546E+02  0.1223E+03
     -6.553  0.1610E+02  0.1242E+03
     -6.436  0.2579E+02  0.1272E+03
     -6.319  0.1839E+02  0.1294E+03
     -6.202  0.2245E+02  0.1320E+03
     -6.084  0.1017E+02  0.1332E+03
     -5.967  0.1423E+02  0.1349E+03
     -5.850  0.1164E+02  0.1363E+03
     -5.733  0.1013E+02  0.1375E+03
     -5.616  0.1187E+02  0.1389E+03
     -5.499  0.1472E+02  0.1406E+03
     -5.382  0.1798E+02  0.1427E+03
     -5.265  0.1864E+02  0.1449E+03
     -5.148  0.2157E+02  0.1474E+03
     -5.031  0.2012E+02  0.1498E+03
     -4.914  0.2567E+02  0.1528E+03
     -4.797  0.3081E+02  0.1564E+03
     -4.680  0.2760E+02  0.1597E+03
     -4.562  0.1235E+02  0.1611E+03
     -4.445  0.2524E+02  0.1641E+03
     -4.328  0.1800E+02  0.1662E+03
     -4.211  0.1735E+02  0.1682E+03
     -4.094  0.1621E+02  0.1701E+03
     -3.977  0.1828E+02  0.1723E+03
     -3.860  0.1472E+02  0.1740E+03
     -3.743  0.1339E+02  0.1756E+03
     -3.626  0.3006E+02  0.1791E+03
     -3.509  0.2876E+02  0.1825E+03
     -3.392  0.2946E+02  0.1860E+03
     -3.275  0.2064E+02  0.1884E+03
     -3.157  0.2140E+02  0.1909E+03
     -3.040  0.1509E+02  0.1927E+03
     -2.923  0.2002E+02  0.1950E+03
     -2.806  0.2707E+02  0.1982E+03
     -2.689  0.3052E+02  0.2018E+03
     -2.572  0.2619E+02  0.2049E+03
     -2.455  0.3439E+02  0.2089E+03
     -2.338  0.2322E+02  0.2116E+03
     -2.221  0.7595E+01  0.2125E+03
     -2.104  0.1337E+02  0.2141E+03
     -1.987  0.1680E+02  0.2161E+03
     -1.870  0.1844E+02  0.2182E+03
     -1.752  0.1995E+02  0.2206E+03
     -1.635  0.2023E+02  0.2229E+03
     -1.518  0.2793E+02  0.2262E+03
     -1.401  0.2418E+02  0.2291E+03
     -1.284  0.1690E+02  0.2310E+03
     -1.167  0.2358E+02  0.2338E+03
     -1.050  0.2317E+02  0.2365E+03
     -0.933  0.3042E+02  0.2401E+03
     -0.816  0.2610E+02  0.2432E+03
     -0.699  0.2268E+02  0.2458E+03
     -0.582  0.1151E+02  0.2472E+03
     -0.465  0.2067E+02  0.2496E+03
     -0.348  0.2351E+02  0.2524E+03
     -0.230  0.2095E+02  0.2548E+03
     -0.113  0.9718E+01  0.2560E+03
      0.004  0.1569E+00  0.2560E+03
      0.121  0.4563E-06  0.2560E+03
      0.238  0.0000E+00  0.2560E+03
      0.355  0.0000E+00  0.2560E+03
      0.472  0.0000E+00  0.2560E+03
      0.589  0.0000E+00  0.2560E+03
      0.706  0.0000E+00  0.2560E+03
      0.823  0.0000E+00  0.2560E+03
      0.940  0.0000E+00  0.2560E+03
      1.057  0.0000E+00  0.2560E+03
      1.175  0.0000E+00  0.2560E+03
      1.292  0.0000E+00  0.2560E+03
      1.409  0.0000E+00  0.2560E+03
      1.526  0.0000E+00  0.2560E+03
      1.643  0.0000E+00  0.2560E+03
      1.760  0.0000E+00  0.2560E+03
      1.877  0.0000E+00  0.2560E+03
      1.994  0.0000E+00  0.2560E+03
      2.111  0.0000E+00  0.2560E+03
      2.228  0.0000E+00  0.2560E+03
      2.345  0.0000E+00  0.2560E+03
      2.462  0.0000E+00  0.2560E+03
      2.580  0.0000E+00  0.2560E+03
      2.697  0.0000E+00  0.2560E+03
      2.814  0.0000E+00  0.2560E+03
      2.931  0.0000E+00  0.2560E+03
      3.048  0.0000E+00  0.2560E+03
      3.165  0.0000E+00  0.2560E+03
      3.282  0.0000E+00  0.2560E+03
      3.399  0.0000E+00  0.2560E+03
      3.516  0.0000E+00  0.2560E+03
      3.633  0.0000E+00  0.2560E+03
      3.750  0.0000E+00  0.2560E+03
      3.867  0.0000E+00  0.2560E+03
      3.984  0.0000E+00  0.2560E+03
      4.102  0.0000E+00  0.2560E+03
      4.219  0.0000E+00  0.2560E+03
      4.336  0.0000E+00  0.2560E+03
      4.453  0.0000E+00  0.2560E+03
      4.570  0.0000E+00  0.2560E+03
      4.687  0.3186E-07  0.2560E+03
      4.804  0.2657E-01  0.2560E+03
      4.921  0.1615E+01  0.2562E+03
      5.038  0.4114E+01  0.2567E+03
      5.155  0.1135E+02  0.2580E+03
      5.272  0.1719E+02  0.2600E+03
      5.389  0.1357E+02  0.2616E+03
      5.507  0.4380E+01  0.2621E+03
      5.624  0.3348E+01  0.2625E+03
      5.741  0.6825E+01  0.2633E+03
      5.858  0.1586E+02  0.2652E+03
      5.975  0.1147E+02  0.2665E+03
      6.092  0.6889E+01  0.2674E+03
      6.209  0.1610E+02  0.2692E+03
      6.326  0.9990E+01  0.2704E+03
      6.443  0.6675E+01  0.2712E+03
      6.560  0.1703E+02  0.2732E+03
      6.677  0.1864E+02  0.2754E+03
      6.794  0.2303E+02  0.2781E+03
      6.912  0.1780E+02  0.2802E+03
      7.029  0.1661E+02  0.2821E+03
      7.146  0.1146E+02  0.2835E+03
      7.263  0.2186E+02  0.2861E+03
      7.380  0.2628E+02  0.2891E+03
      7.497  0.2357E+02  0.2919E+03
      7.614  0.1228E+02  0.2934E+03
      7.731  0.1904E+02  0.2956E+03
      7.848  0.1900E+02  0.2978E+03
      7.965  0.2440E+02  0.3007E+03
      8.082  0.2068E+02  0.3031E+03
      8.199  0.2307E+02  0.3058E+03
      8.316  0.2671E+02  0.3090E+03
      8.434  0.2435E+02  0.3118E+03
      8.551  0.2426E+02  0.3147E+03
      8.668  0.2221E+02  0.3173E+03
      8.785  0.2683E+02  0.3204E+03
      8.902  0.2167E+02  0.3230E+03
      9.019  0.2128E+02  0.3255E+03
      9.136  0.2223E+02  0.3281E+03
      9.253  0.2280E+02  0.3308E+03
      9.370  0.1699E+02  0.3328E+03
      9.487  0.1726E+02  0.3348E+03
      9.604  0.1320E+02  0.3363E+03
      9.721  0.1992E+02  0.3387E+03
      9.839  0.1315E+02  0.3402E+03
      9.956  0.1482E+02  0.3420E+03
     10.073  0.2937E+00  0.3420E+03
     10.190  0.4648E-06  0.3420E+03
     10.307  0.0000E+00  0.3420E+03
     10.424  0.0000E+00  0.3420E+03
     10.541  0.0000E+00  0.3420E+03
     10.658  0.0000E+00  0.3420E+03
     10.775  0.0000E+00  0.3420E+03
     10.892  0.0000E+00  0.3420E+03
     11.009  0.0000E+00  0.3420E+03
     11.126  0.0000E+00  0.3420E+03
     11.244  0.0000E+00  0.3420E+03
     11.361  0.0000E+00  0.3420E+03
     11.478  0.0000E+00  0.3420E+03
     11.51590145    -23.64800905  301      0.05832727      1.00000000
    -23.648  0.0000E+00  0.0000E+00
    -23.531  0.0000E+00  0.0000E+00
    -23.414  0.0000E+00  0.0000E+00
    -23.296  0.0000E+00  0.0000E+00
    -23.179  0.0000E+00  0.0000E+00
    -23.062  0.0000E+00  0.0000E+00
    -22.945  0.0000E+00  0.0000E+00
    -22.828  0.0000E+00  0.0000E+00
    -22.710  0.0000E+00  0.0000E+00
    -22.593  0.0000E+00  0.0000E+00
    -22.476  0.0000E+00  0.0000E+00
    -22.359  0.0000E+00  0.0000E+00
    -22.241  0.4944E-07  0.5795E-08
    -22.124  0.2976E-01  0.3488E-02
    -22.007  0.1482E+01  0.1772E+00
    -21.890  0.7100E+00  0.2604E+00
    -21.773  0.2717E+01  0.5789E+00
    -21.655  0.4762E+00  0.6347E+00
    -21.538  0.1396E+01  0.7982E+00
    -21.421  0.1500E-01  0.8000E+00
    -21.304  0.1086E-07  0.8000E+00
    -21.187  0.0000E+00  0.8000E+00
    -21.069  0.0000E+00  0.8000E+00
    -20.952  0.8061E-10  0.8000E+00
    -20.835  0.1351E-02  0.8002E+00
    -20.718  0.1187E+01  0.9392E+00
    -20.600  0.3703E+01  0.1373E+01
    -20.483  0.9988E+00  0.1490E+01
    -20.366  0.1977E+01  0.1722E+01
    -20.249  0.2053E+01  0.1963E+01
    -20.132  0.2438E+01  0.2248E+01
    -20.014  0.2656E+01  0.2560E+01
    -19.897  0.3307E+01  0.2947E+01
    -19.780  0.2304E+01  0.3217E+01
    -19.663  0.1846E+01  0.3434E+01
    -19.546  0.2963E+01  0.3781E+01
    -19.428  0.2207E+00  0.3807E+01
    -19.311  0.1533E+01  0.3987E+01
    -19.194  0.1129E+00  0.4000E+01
    -19.077  0.1222E-05  0.4000E+01
    -18.959  0.0000E+00  0.4000E+01
    -18.842  0.0000E+00  0.4000E+01
    -18.725  0.0000E+00  0.4000E+01
    -18.608  0.0000E+00  0.4000E+01
    -18.491  0.0000E+00  0.4000E+01
    -18.373  0.0000E+00  0.4000E+01
    -18.256  0.0000E+00  0.4000E+01
    -18.139  0.0000E+00  0.4000E+01
    -18.022  0.0000E+00  0.4000E+01
    -17.905  0.0000E+00  0.4000E+01
    -17.787  0.0000E+00  0.4000E+01
    -17.670  0.0000E+00  0.4000E+01
    -17.553  0.0000E+00  0.4000E+01
    -17.436  0.0000E+00  0.4000E+01
    -17.319  0.0000E+00  0.4000E+01
    -17.201  0.0000E+00  0.4000E+01
    -17.084  0.0000E+00  0.4000E+01
    -16.967  0.0000E+00  0.4000E+01
    -16.850  0.0000E+00  0.4000E+01
    -16.732  0.0000E+00  0.4000E+01
    -16.615  0.0000E+00  0.4000E+01
    -16.498  0.0000E+00  0.4000E+01
    -16.381  0.0000E+00  0.4000E+01
    -16.264  0.0000E+00  0.4000E+01
    -16.146  0.0000E+00  0.4000E+01
    -16.029  0.0000E+00  0.4000E+01
    -15.912  0.0000E+00  0.4000E+01
    -15.795  0.0000E+00  0.4000E+01
    -15.678  0.0000E+00  0.4000E+01
    -15.560  0.0000E+00  0.4000E+01
    -15.443  0.0000E+00  0.4000E+01
    -15.326  0.0000E+00  0.4000E+01
    -15.209  0.0000E+00  0.4000E+01
    -15.091  0.0000E+00  0.4000E+01
    -14.974  0.1016E-08  0.4000E+01
    -14.857  0.4839E-02  0.4001E+01
    -14.740  0.1212E+01  0.4143E+01
    -14.623  0.1788E+01  0.4352E+01
    -14.505  0.4131E+00  0.4401E+01
    -14.388  0.1891E+01  0.4622E+01
    -14.271  0.1515E+01  0.4800E+01
    -14.154  0.1820E-02  0.4800E+01
    -14.037  0.1299E-09  0.4800E+01
    -13.919  0.9943E-10  0.4800E+01
    -13.802  0.1602E-02  0.4800E+01
    -13.685  0.1495E+01  0.4975E+01
    -13.568  0.1911E+01  0.5199E+01
    -13.450  0.4811E-02  0.5200E+01
    -13.333  0.5047E+00  0.5259E+01
    -13.216  0.2795E+01  0.5587E+01
    -13.099  0.1131E+00  0.5600E+01
    -12.982  0.1056E-05  0.5600E+01
    -12.864  0.0000E+00  0.5600E+01
    -12.747  0.0000E+00  0.5600E+01
    -12.630  0.0000E+00  0.5600E+01
    -12.513  0.0000E+00  0.5600E+01
    -12.396  0.0000E+00  0.5600E+01
    -12.278  0.0000E+00  0.5600E+01
    -12.161  0.5895E-09  0.5600E+01
    -12.044  0.3747E-02  0.5600E+01
    -11.927  0.1567E+01  0.5784E+01
    -11.809  0.1835E+01  0.5999E+01
    -11.692  0.7722E-02  0.6000E+01
    -11.575  0.1368E-01  0.6002E+01
    -11.458  0.1382E+01  0.6164E+01
    -11.341  0.3115E+00  0.6200E+01
    -11.223  0.8334E+00  0.6298E+01
    -11.106  0.9966E+00  0.6415E+01
    -10.989  0.1530E+01  0.6594E+01
    -10.872  0.9849E+00  0.6709E+01
    -10.755  0.7729E+00  0.6800E+01
    -10.637  0.5097E-03  0.6800E+01
    -10.520  0.1278E-10  0.6800E+01
    -10.403  0.0000E+00  0.6800E+01
    -10.286  0.1027E-07  0.6800E+01
    -10.169  0.1461E-01  0.6802E+01
    -10.051  0.1392E+01  0.6965E+01
     -9.934  0.1036E+01  0.7086E+01
     -9.817  0.3598E+01  0.7508E+01
     -9.700  0.1193E+01  0.7648E+01
     -9.582  0.1902E+01  0.7871E+01
     -9.465  0.2257E+01  0.8135E+01
     -9.348  0.5502E+00  0.8200E+01
     -9.231  0.4000E+00  0.8247E+01
     -9.114  0.1298E+01  0.8399E+01
     -8.996  0.1189E-01  0.8400E+01
     -8.879  0.1154E+01  0.8536E+01
     -8.762  0.6487E+00  0.8612E+01
     -8.645  0.1538E+01  0.8792E+01
     -8.528  0.6809E-01  0.8800E+01
     -8.410  0.1083E-03  0.8800E+01
     -8.293  0.5160E+00  0.8860E+01
     -8.176  0.2139E+01  0.9111E+01
     -8.059  0.2497E+01  0.9404E+01
     -7.941  0.1655E+01  0.9598E+01
     -7.824  0.2539E+01  0.9895E+01
     -7.707  0.9711E+00  0.1001E+02
     -7.590  0.1562E+01  0.1019E+02
     -7.473  0.1558E+01  0.1037E+02
     -7.355  0.2627E+01  0.1068E+02
     -7.238  0.1604E+01  0.1087E+02
     -7.121  0.3065E+01  0.1123E+02
     -7.004  0.2847E+01  0.1156E+02
     -6.887  0.8947E+00  0.1167E+02
     -6.769  0.2751E+01  0.1199E+02
     -6.652  0.1730E+01  0.1219E+02
     -6.535  0.1186E+01  0.1233E+02
     -6.418  0.2737E+01  0.1265E+02
     -6.300  0.1581E+01  0.1284E+02
     -6.183  0.2886E+01  0.1318E+02
     -6.066  0.7061E+00  0.1326E+02
     -5.949  0.1521E+01  0.1344E+02
     -5.832  0.1367E+01  0.1360E+02
     -5.714  0.7982E+00  0.1369E+02
     -5.597  0.1135E+01  0.1383E+02
     -5.480  0.1480E+01  0.1400E+02
     -5.363  0.1684E+01  0.1420E+02
     -5.246  0.1816E+01  0.1441E+02
     -5.128  0.2226E+01  0.1467E+02
     -5.011  0.1867E+01  0.1489E+02
     -4.894  0.2277E+01  0.1516E+02
     -4.777  0.3170E+01  0.1553E+02
     -4.659  0.3439E+01  0.1593E+02
     -4.542  0.6855E+00  0.1601E+02
     -4.425  0.2833E+01  0.1634E+02
     -4.308  0.1841E+01  0.1656E+02
     -4.191  0.1779E+01  0.1677E+02
     -4.073  0.1457E+01  0.1694E+02
     -3.956  0.2060E+01  0.1718E+02
     -3.839  0.1564E+01  0.1736E+02
     -3.722  0.6425E+00  0.1744E+02
     -3.605  0.3035E+01  0.1779E+02
     -3.487  0.2771E+01  0.1812E+02
     -3.370  0.3415E+01  0.1852E+02
     -3.253  0.1919E+01  0.1874E+02
     -3.136  0.2454E+01  0.1903E+02
     -3.019  0.1435E+01  0.1920E+02
     -2.901  0.1548E+01  0.1938E+02
     -2.784  0.2662E+01  0.1969E+02
     -2.667  0.3306E+01  0.2008E+02
     -2.550  0.2074E+01  0.2032E+02
     -2.432  0.3925E+01  0.2078E+02
     -2.315  0.3019E+01  0.2114E+02
     -2.198  0.5418E+00  0.2120E+02
     -2.081  0.1257E+01  0.2135E+02
     -1.964  0.1530E+01  0.2153E+02
     -1.846  0.1820E+01  0.2174E+02
     -1.729  0.2087E+01  0.2199E+02
     -1.612  0.1531E+01  0.2216E+02
     -1.495  0.2873E+01  0.2250E+02
     -1.378  0.2779E+01  0.2283E+02
     -1.260  0.1516E+01  0.2300E+02
     -1.143  0.2504E+01  0.2330E+02
     -1.026  0.1962E+01  0.2353E+02
     -0.909  0.3020E+01  0.2388E+02
     -0.791  0.2822E+01  0.2421E+02
     -0.674  0.2861E+01  0.2455E+02
     -0.557  0.6151E+00  0.2462E+02
     -0.440  0.1946E+01  0.2485E+02
     -0.323  0.2426E+01  0.2513E+02
     -0.205  0.2554E+01  0.2543E+02
     -0.088  0.1421E+01  0.2560E+02
      0.029  0.9871E-02  0.2560E+02
      0.146  0.4445E-08  0.2560E+02
      0.263  0.0000E+00  0.2560E+02
      0.381  0.0000E+00  0.2560E+02
      0.498  0.0000E+00  0.2560E+02
      0.615  0.0000E+00  0.2560E+02
      0.732  0.0000E+00  0.2560E+02
      0.850  0.0000E+00  0.2560E+02
      0.967  0.0000E+00  0.2560E+02
      1.084  0.0000E+00  0.2560E+02
      1.201  0.0000E+00  0.2560E+02
      1.318  0.0000E+00  0.2560E+02
      1.436  0.0000E+00  0.2560E+02
      1.553  0.0000E+00  0.2560E+02
      1.670  0.0000E+00  0.2560E+02
      1.787  0.0000E+00  0.2560E+02
      1.904  0.0000E+00  0.2560E+02
      2.022  0.0000E+00  0.2560E+02
      2.139  0.0000E+00  0.2560E+02
      2.256  0.0000E+00  0.2560E+02
      2.373  0.0000E+00  0.2560E+02
      2.490  0.0000E+00  0.2560E+02
      2.608  0.0000E+00  0.2560E+02
      2.725  0.0000E+00  0.2560E+02
      2.842  0.0000E+00  0.2560E+02
      2.959  0.0000E+00  0.2560E+02
      3.077  0.0000E+00  0.2560E+02
      3.194  0.0000E+00  0.2560E+02
      3.311  0.0000E+00  0.2560E+02
      3.428  0.0000E+00  0.2560E+02
      3.545  0.0000E+00  0.2560E+02
      3.663  0.0000E+00  0.2560E+02
      3.780  0.0000E+00  0.2560E+02
      3.897  0.0000E+00  0.2560E+02
      4.014  0.0000E+00  0.2560E+02
      4.131  0.0000E+00  0.2560E+02
      4.249  0.0000E+00  0.2560E+02
      4.366  0.0000E+00  0.2560E+02
      4.483  0.0000E+00  0.2560E+02
      4.600  0.0000E+00  0.2560E+02
      4.718  0.0000E+00  0.2560E+02
      4.835  0.0000E+00  0.2560E+02
      4.952  0.2635E-10  0.2560E+02
      5.069  0.7490E-03  0.2560E+02
      5.186  0.8477E+00  0.2570E+02
      5.304  0.2000E+01  0.2593E+02
      5.421  0.1914E+01  0.2616E+02
      5.538  0.3569E+00  0.2620E+02
      5.655  0.5131E-04  0.2620E+02
      5.772  0.3062E+00  0.2624E+02
      5.890  0.1945E+01  0.2646E+02
      6.007  0.1158E+01  0.2660E+02
      6.124  0.2853E+00  0.2663E+02
      6.241  0.2075E+01  0.2688E+02
      6.359  0.1054E+01  0.2700E+02
      6.476  0.1094E+00  0.2701E+02
      6.593  0.1631E+01  0.2720E+02
      6.710  0.1691E+01  0.2740E+02
      6.827  0.2734E+01  0.2772E+02
      6.945  0.1957E+01  0.2795E+02
      7.062  0.1761E+01  0.2816E+02
      7.179  0.3844E+00  0.2820E+02
      7.296  0.2090E+01  0.2845E+02
      7.413  0.2903E+01  0.2879E+02
      7.531  0.3026E+01  0.2914E+02
      7.648  0.5662E+00  0.2921E+02
      7.765  0.2042E+01  0.2945E+02
      7.882  0.1471E+01  0.2962E+02
      8.000  0.2943E+01  0.2997E+02
      8.117  0.1734E+01  0.3017E+02
      8.234  0.2006E+01  0.3040E+02
      8.351  0.3047E+01  0.3076E+02
      8.468  0.2401E+01  0.3104E+02
      8.586  0.2552E+01  0.3134E+02
      8.703  0.1970E+01  0.3157E+02
      8.820  0.3209E+01  0.3195E+02
      8.937  0.1889E+01  0.3217E+02
      9.054  0.1985E+01  0.3240E+02
      9.172  0.2438E+01  0.3269E+02
      9.289  0.2625E+01  0.3300E+02
      9.406  0.1540E+01  0.3318E+02
      9.523  0.2045E+01  0.3342E+02
      9.640  0.1541E+01  0.3360E+02
      9.758  0.2156E+01  0.3385E+02
      9.875  0.1466E+01  0.3402E+02
      9.992  0.1484E+01  0.3420E+02
     10.109  0.2976E-01  0.3420E+02
     10.227  0.4944E-07  0.3420E+02
     10.344  0.0000E+00  0.3420E+02
     10.461  0.0000E+00  0.3420E+02
     10.578  0.0000E+00  0.3420E+02
     10.695  0.0000E+00  0.3420E+02
     10.813  0.0000E+00  0.3420E+02
     10.930  0.0000E+00  0.3420E+02
     11.047  0.0000E+00  0.3420E+02
     11.164  0.0000E+00  0.3420E+02
     11.281  0.0000E+00  0.3420E+02
     11.399  0.0000E+00  0.3420E+02
     11.516  0.0000E+00  0.3420E+02
