       N       E                     dE             d eps       ncg     rms          rms(c)
DAV:   1     0.136436377016E+04    0.13644E+04   -0.12044E+05   342   0.123E+03
DAV:   2    -0.390891977068E+03   -0.17553E+04   -0.16917E+04   425   0.299E+02
DAV:   3    -0.523672033433E+03   -0.13278E+03   -0.13173E+03   420   0.870E+01
DAV:   4    -0.526407663941E+03   -0.27356E+01   -0.27266E+01   436   0.130E+01
DAV:   5    -0.526479081516E+03   -0.71418E-01   -0.71319E-01   420   0.198E+00    0.368E+01
RMM:   6    -0.499902896423E+03    0.26576E+02   -0.51923E+01   342   0.155E+01    0.183E+01
RMM:   7    -0.496164027967E+03    0.37389E+01   -0.20147E+01   342   0.892E+00    0.831E+00
RMM:   8    -0.495879291024E+03    0.28474E+00   -0.21314E+00   342   0.363E+00    0.201E+00
RMM:   9    -0.495869319901E+03    0.99711E-02   -0.43005E-01   344   0.148E+00    0.645E-01
RMM:  10    -0.495879482752E+03   -0.10163E-01   -0.10953E-01   365   0.662E-01    0.359E-01
RMM:  11    -0.495881239507E+03   -0.17568E-02   -0.44449E-02   342   0.490E-01    0.302E-01
RMM:  12    -0.495879276321E+03    0.19632E-02   -0.79608E-03   345   0.210E-01    0.844E-02
RMM:  13    -0.495879562546E+03   -0.28622E-03   -0.50711E-03   344   0.155E-01    0.751E-02
RMM:  14    -0.495879452314E+03    0.11023E-03   -0.70889E-04   321   0.622E-02    0.158E-02
RMM:  15    -0.495879469012E+03   -0.16698E-04   -0.20492E-04   227   0.310E-02
      1 T=     0. E= -.50122602E+03 F= -.50122605E+03 E0= -.50122605E+03  EK= 0.26277E-04 SP= 0.00E+00 SK= 0.00E+00
       N       E                     dE             d eps       ncg     rms          rms(c)
DAV:   1    -0.495879668128E+03   -0.21581E-03   -0.20842E-04   292   0.405E-02    0.546E-03
RMM:   2    -0.495879669907E+03   -0.17798E-05   -0.22297E-05   214   0.125E-02
      2 T=     0. E= -.50122603E+03 F= -.50122626E+03 E0= -.50122626E+03  EK= 0.22697E-03 SP= 0.00E+00 SK= 0.00E+00
       N       E                     dE             d eps       ncg     rms          rms(c)
DAV:   1    -0.495880014967E+03   -0.34684E-03   -0.17412E-04   268   0.427E-02    0.109E-02
RMM:   2    -0.495880015873E+03   -0.90574E-06   -0.27182E-05   214   0.145E-02
      3 T=     0. E= -.50122604E+03 F= -.50122662E+03 E0= -.50122662E+03  EK= 0.58272E-03 SP= 0.00E+00 SK= 0.00E+00
       N       E                     dE             d eps       ncg     rms          rms(c)
DAV:   1    -0.495880435840E+03   -0.42087E-03   -0.13149E-03   404   0.103E-01    0.164E-02
RMM:   2    -0.495880436175E+03   -0.33518E-06   -0.39055E-05   204   0.169E-02
      4 T=     0. E= -.50122604E+03 F= -.50122707E+03 E0= -.50122707E+03  EK= 0.10215E-02 SP= 0.00E+00 SK= 0.00E+00
       N       E                     dE             d eps       ncg     rms          rms(c)
DAV:   1    -0.495880851153E+03   -0.41531E-03   -0.19724E-03   404   0.126E-01    0.206E-02
RMM:   2    -0.495880851599E+03   -0.44574E-06   -0.57486E-05   193   0.206E-02
      5 T=     0. E= -.50122605E+03 F= -.50122751E+03 E0= -.50122751E+03  EK= 0.14640E-02 SP= 0.00E+00 SK= 0.00E+00
       N       E                     dE             d eps       ncg     rms          rms(c)
DAV:   1    -0.495881198756E+03   -0.34760E-03   -0.25864E-03   404   0.144E-01    0.231E-02
RMM:   2    -0.495881199571E+03   -0.81416E-06   -0.70552E-05   185   0.228E-02
      6 T=     0. E= -.50122605E+03 F= -.50122789E+03 E0= -.50122789E+03  EK= 0.18452E-02 SP= 0.00E+00 SK= 0.00E+00
       N       E                     dE             d eps       ncg     rms          rms(c)
DAV:   1    -0.495881453591E+03   -0.25483E-03   -0.30562E-03   388   0.156E-01    0.244E-02
RMM:   2    -0.495881454814E+03   -0.12226E-05   -0.76788E-05   183   0.239E-02
      7 T=     0. E= -.50122604E+03 F= -.50122818E+03 E0= -.50122818E+03  EK= 0.21367E-02 SP= 0.00E+00 SK= 0.00E+00
       N       E                     dE             d eps       ncg     rms          rms(c)
DAV:   1    -0.495881632023E+03   -0.17843E-03   -0.51452E-06   257   0.361E-02    0.390E-03
RMM:   2    -0.495881632955E+03   -0.93232E-06   -0.10252E-05   185   0.863E-03
      8 T=     0. E= -.50122604E+03 F= -.50122839E+03 E0= -.50122839E+03  EK= 0.23504E-02 SP= 0.00E+00 SK= 0.00E+00
       N       E                     dE             d eps       ncg     rms          rms(c)
DAV:   1    -0.495881784371E+03   -0.15235E-03   -0.45760E-05   254   0.416E-02    0.603E-03
RMM:   2    -0.495881786677E+03   -0.23065E-05   -0.26246E-05   185   0.126E-02
      9 T=     0. E= -.50122604E+03 F= -.50122857E+03 E0= -.50122857E+03  EK= 0.25345E-02 SP= 0.00E+00 SK= 0.00E+00
       N       E                     dE             d eps       ncg     rms          rms(c)
DAV:   1    -0.495881973991E+03   -0.18962E-03   -0.31688E-05   249   0.401E-02    0.771E-03
RMM:   2    -0.495881975128E+03   -0.11375E-05   -0.20385E-05   185   0.121E-02
     10 T=     0. E= -.50122603E+03 F= -.50122878E+03 E0= -.50122878E+03  EK= 0.27495E-02 SP= 0.00E+00 SK= 0.00E+00
