 vasp.6.5.1 10Mar25 (build Aug 25 2025 18:33:19) complex                         
 executed on              LinuxNV date 2025.11.28  17:07:23
 running    1 mpi-ranks, with    2 threads/rank, on    1 nodes
 distrk:  each k-point on    1 cores,    1 groups
 distr:  one band on NCORE=   1 cores,    1 groups
 Offloading initialized ...    1 GPUs detected


--------------------------------------------------------------------------------------------------------


 INCAR:
   ENCUT = 450.000000
   POTIM = 0.500000
   SIGMA = 0.050000
   TEBEG = 300.000000
   TEEND = 300.000000
   ALGO = Fast
   GGA = PE
   PREC = Normal
   IBRION = 0
   ISIF = 2
   ISMEAR = 0
   ISTART = 0
   ISYM = 0
   NSW = 10
   IVDW = 12
   MDALGO = 4
   LCHARG = .FALSE.
   LWAVE = .FALSE.
   LREAL = Auto

 POTCAR:    PAW_PBE C 08Apr2002                   
 POTCAR:    PAW_PBE H 15Jun2001                   
 POTCAR:    PAW_PBE O 08Apr2002                   
 POTCAR:    PAW_PBE C 08Apr2002                   
   SHA256 =  253f7b50bb8d59471dbedb8285d89021f4a42ed1a2c5d38a03a736e69125dd95 C/POTCAR              
   COPYR  = (c) Copyright 08Apr2002 Georg Kresse                                                    
   COPYR  = This file is part of the software VASP. Any use, copying, and all other rights are regul
   COPYR  = If you do not have a valid VASP license, you may not use, copy or distribute this file. 
   VRHFIN =C: s2p2                                                                                  
   LEXCH  = PE                                                                                      
   EATOM  =   147.1560 eV,   10.8157 Ry                                                             
                                                                                                    
   TITEL  = PAW_PBE C 08Apr2002                                                                     
   LULTRA =        F    use ultrasoft PP ?                                                          
   IUNSCR =        1    unscreen: 0-lin 1-nonlin 2-no                                               
   RPACOR =    1.200    partial core radius                                                         
   POMASS =   12.011; ZVAL   =    4.000    mass and valenz                                          
   RCORE  =    1.500    outmost cutoff radius                                                       
   RWIGS  =    1.630; RWIGS  =    0.863    wigner-seitz radius (au A)                               
   ENMAX  =  400.000; ENMIN  =  300.000 eV                                                          
   ICORE  =        2    local potential                                                             
   LCOR   =        T    correct aug charges                                                         
   LPAW   =        T    paw PP                                                                      
   EAUG   =  644.873                                                                                
   DEXC   =    0.000                                                                                
   RMAX   =    1.529    core radius for proj-oper                                                   
   RAUG   =    1.300    factor for augmentation sphere                                              
   RDEP   =    1.501    radius for radial grids                                                     
   RDEPT  =    1.300    core radius for aug-charge                                                  
                                                                                                    
   Atomic configuration                                                                             
    4 entries                                                                                       
     n  l   j            E        occ.                                                              
     1  0  0.50      -273.3789   2.0000                                                             
     2  0  0.50       -13.7508   2.0000                                                             
     2  1  0.50        -5.2854   2.0000                                                             
     3  2  1.50        -5.4423   0.0000                                                             
   Description                                                                                      
     l       E           TYP  RCUT    TYP  RCUT                                                     
     0    -13.7508458     23  1.200                                                                 
     0     -8.2022199     23  1.200                                                                 
     1     -5.2854383     23  1.500                                                                 
     1     34.0145650     23  1.500                                                                 
     2     -5.4423304      7  1.500                                                                 
  local pseudopotential read in
  partial core-charges read in
  partial kinetic energy density read in
  atomic valenz-charges read in
  non local Contribution for L=            0  read in
    real space projection operators read in
  non local Contribution for L=            0  read in
    real space projection operators read in
  non local Contribution for L=            1  read in
    real space projection operators read in
  non local Contribution for L=            1  read in
    real space projection operators read in
    PAW grid and wavefunctions read in
 
   number of l-projection  operators is LMAX  =            4
   number of lm-projection operators is LMMAX =            8
 
 POTCAR:    PAW_PBE H 15Jun2001                   
   SHA256 =  030f79b5d3ab3cf0e668861823c8fb652ff669f3e15e46930bd03bfd63a607b6 H/POTCAR              
   COPYR  = (c) Copyright 15Jun2001 Georg Kresse                                                    
   COPYR  = This file is part of the software VASP. Any use, copying, and all other rights are regul
   COPYR  = If you do not have a valid VASP license, you may not use, copy or distribute this file. 
   VRHFIN =H: ultrasoft test                                                                        
   LEXCH  = PE                                                                                      
   EATOM  =    12.4884 eV,    0.9179 Ry                                                             
                                                                                                    
   TITEL  = PAW_PBE H 15Jun2001                                                                     
   LULTRA =        F    use ultrasoft PP ?                                                          
   IUNSCR =        0    unscreen: 0-lin 1-nonlin 2-no                                               
   RPACOR =    0.000    partial core radius                                                         
   POMASS =    1.000; ZVAL   =    1.000    mass and valenz                                          
   RCORE  =    1.100    outmost cutoff radius                                                       
   RWIGS  =    0.700; RWIGS  =    0.370    wigner-seitz radius (au A)                               
   ENMAX  =  250.000; ENMIN  =  200.000 eV                                                          
   RCLOC  =    0.701    cutoff for local pot                                                        
   LCOR   =        T    correct aug charges                                                         
   LPAW   =        T    paw PP                                                                      
   EAUG   =  400.000                                                                                
   RMAX   =    1.123    core radius for proj-oper                                                   
   RAUG   =    1.200    factor for augmentation sphere                                              
   RDEP   =    1.112    radius for radial grids                                                     
   RDEPT  =    0.926    core radius for aug-charge                                                  
                                                                                                    
   Atomic configuration                                                                             
    2 entries                                                                                       
     n  l   j            E        occ.                                                              
     1  0  0.50        -6.4927   1.0000                                                             
     2  1  0.50        -3.4015   0.0000                                                             
   Description                                                                                      
     l       E           TYP  RCUT    TYP  RCUT                                                     
     0     -6.4927494     23  1.100                                                                 
     0      6.8029130     23  1.100                                                                 
     1     -4.0817478     23  1.100                                                                 
  local pseudopotential read in
  atomic valenz-charges read in
  non local Contribution for L=            0  read in
    real space projection operators read in
  non local Contribution for L=            0  read in
    real space projection operators read in
  non local Contribution for L=            1  read in
    real space projection operators read in
    PAW grid and wavefunctions read in
 
   number of l-projection  operators is LMAX  =            3
   number of lm-projection operators is LMMAX =            5
 
 POTCAR:    PAW_PBE O 08Apr2002                   
   SHA256 =  818f92134a0a090dccd8ba1447fa70422a3b330e708bb4f08108d8ae51209ddf O/POTCAR              
   COPYR  = (c) Copyright 08Apr2002 Georg Kresse                                                    
   COPYR  = This file is part of the software VASP. Any use, copying, and all other rights are regul
   COPYR  = If you do not have a valid VASP license, you may not use, copy or distribute this file. 
   VRHFIN =O: s2p4                                                                                  
   LEXCH  = PE                                                                                      
   EATOM  =   432.3788 eV,   31.7789 Ry                                                             
                                                                                                    
   TITEL  = PAW_PBE O 08Apr2002                                                                     
   LULTRA =        F    use ultrasoft PP ?                                                          
   IUNSCR =        1    unscreen: 0-lin 1-nonlin 2-no                                               
   RPACOR =    1.200    partial core radius                                                         
   POMASS =   16.000; ZVAL   =    6.000    mass and valenz                                          
   RCORE  =    1.520    outmost cutoff radius                                                       
   RWIGS  =    1.550; RWIGS  =    0.820    wigner-seitz radius (au A)                               
   ENMAX  =  400.000; ENMIN  =  300.000 eV                                                          
   ICORE  =        2    local potential                                                             
   LCOR   =        T    correct aug charges                                                         
   LPAW   =        T    paw PP                                                                      
   EAUG   =  605.392                                                                                
   DEXC   =    0.000                                                                                
   RMAX   =    1.553    core radius for proj-oper                                                   
   RAUG   =    1.300    factor for augmentation sphere                                              
   RDEP   =    1.550    radius for radial grids                                                     
   RDEPT  =    1.329    core radius for aug-charge                                                  
                                                                                                    
   Atomic configuration                                                                             
    4 entries                                                                                       
     n  l   j            E        occ.                                                              
     1  0  0.50      -514.6923   2.0000                                                             
     2  0  0.50       -23.9615   2.0000                                                             
     2  1  0.50        -9.0305   4.0000                                                             
     3  2  1.50        -9.5241   0.0000                                                             
   Description                                                                                      
     l       E           TYP  RCUT    TYP  RCUT                                                     
     0    -23.9615318     23  1.200                                                                 
     0     -9.5240782     23  1.200                                                                 
     1     -9.0304911     23  1.520                                                                 
     1      8.1634956     23  1.520                                                                 
     2     -9.5240782      7  1.500                                                                 
  local pseudopotential read in
  partial core-charges read in
  partial kinetic energy density read in
  kinetic energy density of atom read in
  atomic valenz-charges read in
  non local Contribution for L=            0  read in
    real space projection operators read in
  non local Contribution for L=            0  read in
    real space projection operators read in
  non local Contribution for L=            1  read in
    real space projection operators read in
  non local Contribution for L=            1  read in
    real space projection operators read in
    PAW grid and wavefunctions read in
 
   number of l-projection  operators is LMAX  =            4
   number of lm-projection operators is LMMAX =            8
 
 Optimization of the real space projectors (new method)

 maximal supplied QI-value         = 25.13
 optimisation between [QCUT,QGAM] = [ 10.81, 21.61] = [ 32.71,130.83] Ry 
 Optimized for a Real-space Cutoff    1.23 Angstroem

   l    n(q)    QCUT    max X(q) W(low)/X(q) W(high)/X(q)  e(spline) 
   0      8    10.807   115.676    0.36E-03    0.72E-03    0.24E-06
   0      8    10.807    87.132    0.35E-03    0.71E-03    0.24E-06
   1      7    10.807     4.429    0.19E-03    0.39E-03    0.11E-06
   1      7    10.807     2.733    0.14E-03    0.28E-03    0.13E-06
 Optimization of the real space projectors (new method)

 maximal supplied QI-value         = 34.20
 optimisation between [QCUT,QGAM] = [ 10.60, 21.55] = [ 31.48,130.03] Ry 
 Optimized for a Real-space Cutoff    1.23 Angstroem

   l    n(q)    QCUT    max X(q) W(low)/X(q) W(high)/X(q)  e(spline) 
   0      8    10.603    19.460    0.37E-03    0.59E-03    0.23E-06
   0      8    10.603    12.209    0.35E-03    0.56E-03    0.22E-06
   1      7    10.603     4.655    0.70E-04    0.28E-03    0.29E-06
 Optimization of the real space projectors (new method)

 maximal supplied QI-value         = 24.76
 optimisation between [QCUT,QGAM] = [ 10.64, 21.54] = [ 31.73,129.89] Ry 
 Optimized for a Real-space Cutoff    1.23 Angstroem

   l    n(q)    QCUT    max X(q) W(low)/X(q) W(high)/X(q)  e(spline) 
   0      8    10.645    20.381    0.38E-03    0.60E-03    0.15E-06
   0      8    10.645    15.268    0.40E-03    0.65E-03    0.17E-06
   1      7    10.645     5.964    0.30E-03    0.63E-03    0.18E-06
   1      7    10.645     5.382    0.24E-03    0.53E-03    0.16E-06
  PAW_PBE C 08Apr2002                   :
 energy of atom  1       EATOM= -147.1560
 kinetic energy error for atom=    0.0116 (will be added to EATOM!!)
  PAW_PBE H 15Jun2001                   :
 energy of atom  2       EATOM=  -12.4884
 kinetic energy error for atom=    0.0045 (will be added to EATOM!!)
  PAW_PBE O 08Apr2002                   :
 energy of atom  3       EATOM= -432.3788
 kinetic energy error for atom=    0.0389 (will be added to EATOM!!)
 
 
 POSCAR: C  H  O
  positions in cartesian coordinates
  velocities in cartesian coordinates
 IVDW         = 12
 VDW_S6       =    1.0000
 VDW_S8       =    0.7875
 VDW_A1       =    0.4289
 VDW_A2       =    4.4407
 VDW_RADIUS   =   50.2022 A
 VDW_CNRADIUS =   21.1671 A



  MD-specific parameters
                MDALGO =   4
           NHC_NCHAINS =   0
            NHC_PERIOD =    40
            NHC_NRESPA =    1
                NHC_NS =  1
                 CNEXP =     9.000   14.000
 exchange-correlation table for PE
   RHO(1)=    0.500       N(1)  =     2000
   RHO(2)=  100.500       N(2)  =     4000
 


--------------------------------------------------------------------------------------------------------


 ion  position               nearest neighbor table
   1  0.016  0.975  0.984-  25 1.11  70 1.40  68 1.43   2 1.53
   2  0.906  0.837  0.962-  26 1.10  65 1.43   1 1.53   3 1.53
   3  0.785  0.886  0.043-  27 1.11  66 1.43   4 1.53   2 1.53
   4  0.752  0.041  0.967-  28 1.10  67 1.44   5 1.52   3 1.53
   5  0.871  0.166  0.998-  29 1.11  68 1.43   6 1.52   4 1.52
   6  0.851  0.331  0.938-  30 1.10  31 1.10  69 1.45   5 1.52
   7  0.524  0.060  0.965-  64 1.11  67 1.39  73 1.44   8 1.53
   8  0.442  0.195  0.993-  32 1.10  71 1.43   9 1.52   7 1.53
   9  0.310  0.144  0.898-  33 1.11  72 1.43   8 1.52  10 1.54
  10  0.249  0.994  0.983-  34 1.10  70 1.44   9 1.54  11 1.54
  11  0.337  0.862  0.964-  35 1.10  73 1.44  12 1.53  10 1.54
  12  0.296  0.709  0.056-  36 1.10  37 1.10  74 1.43  11 1.53
  13  0.233  0.520  0.520-  38 1.11  80 1.40  78 1.43  14 1.53
  14  0.122  0.388  0.467-  39 1.10  75 1.43  15 1.52  13 1.53
  15  0.992  0.432  0.515-  40 1.10  76 1.43  14 1.52  16 1.53
  16  0.971  0.602  0.473-  41 1.10  77 1.44  17 1.53  15 1.53
  17  0.088  0.722  0.532-  42 1.10  78 1.44  18 1.52  16 1.53
  18  0.085  0.885  0.455-  44 1.10  43 1.10  79 1.42  17 1.52
  19  0.739  0.615  0.482-  45 1.11  77 1.39  83 1.45  20 1.52
  20  0.661  0.738  0.557-  46 1.11  81 1.42  21 1.52  19 1.52
  21  0.519  0.702  0.489-  47 1.11  82 1.42  20 1.52  22 1.54
  22  0.468  0.528  0.520-  48 1.10  80 1.44  23 1.53  21 1.54
  23  0.555  0.412  0.446-  49 1.11  83 1.44  22 1.53  24 1.54
  24  0.518  0.238  0.491-  51 1.10  50 1.10  84 1.42  23 1.54
  25  0.042  0.005  0.124-   1 1.11
  26  0.884  0.811  0.821-   2 1.10
  27  0.807  0.908  0.186-   3 1.11
  28  0.727  0.024  0.825-   4 1.10
  29  0.900  0.176  0.140-   5 1.11
  30  0.790  0.327  0.816-   6 1.10
  31  0.948  0.393  0.917-   6 1.10
  32  0.431  0.210  0.134-   8 1.10
  33  0.324  0.111  0.761-   9 1.11
  34  0.241  0.021  0.123-  10 1.10
  35  0.344  0.833  0.824-  11 1.10
  36  0.271  0.736  0.190-  12 1.10
  37  0.381  0.643  0.067-  12 1.10
  38  0.254  0.529  0.663-  13 1.11
  39  0.122  0.366  0.325-  14 1.10
  40  0.988  0.424  0.657-  15 1.10
  41  0.950  0.611  0.331-  16 1.10
  42  0.100  0.732  0.675-  17 1.10
  43  0.082  0.866  0.312-  18 1.10
  44  0.177  0.959  0.497-  18 1.10
  45  0.741  0.623  0.339-  19 1.11
  46  0.666  0.727  0.701-  20 1.11
  47  0.514  0.719  0.346-  21 1.11
  48  0.464  0.512  0.662-  22 1.10
  49  0.554  0.422  0.303-  23 1.11
  50  0.521  0.233  0.634-  24 1.10
  51  0.591  0.166  0.445-  24 1.10
  52  0.876  0.616  0.042-  65 0.99
  53  0.601  0.798  0.039-  66 0.99
  54  0.820  0.386  0.181-  69 0.99
  55  0.585  0.370  0.983-  71 0.98
  56  0.269  0.368  0.939-  72 0.98
  57  0.110  0.642  0.987-  74 0.99
  58  0.164  0.262  0.676-  75 1.00
  59  0.809  0.340  0.474-  76 0.99
  60  0.012  0.076  0.525-  79 0.98
  61  0.806  0.904  0.520-  81 0.99
  62  0.359  0.795  0.518-  82 0.98
  63  0.327  0.220  0.456-  84 0.98
  64  0.530  0.033  0.824-   7 1.11
  65  0.950  0.702  0.043-  52 0.99   2 1.43
  66  0.683  0.758  0.012-  53 0.99   3 1.43
  67  0.646  0.101  0.049-   7 1.39   4 1.44
  68  0.973  0.112  0.906-   1 1.43   5 1.43
  69  0.790  0.420  0.065-  54 0.99   6 1.45
  70  0.124  0.934  0.902-   1 1.40  10 1.44
  71  0.498  0.340  0.924-  55 0.98   8 1.43
  72  0.224  0.264  0.896-  56 0.98   9 1.43
  73  0.465  0.918  0.042-   7 1.44  11 1.44
  74  0.194  0.605  0.964-  57 0.99  12 1.43
  75  0.150  0.244  0.546-  58 1.00  14 1.43
  76  0.892  0.321  0.427-  59 0.99  15 1.43
  77  0.863  0.645  0.564-  19 1.39  16 1.44
  78  0.201  0.670  0.461-  13 1.43  17 1.44
  79  0.979  0.963  0.503-  60 0.98  18 1.42
  80  0.341  0.484  0.434-  13 1.40  22 1.44
  81  0.710  0.893  0.510-  61 0.99  20 1.42
  82  0.448  0.810  0.575-  62 0.98  21 1.42
  83  0.685  0.456  0.522-  23 1.44  19 1.45
  84  0.397  0.166  0.411-  63 0.98  24 1.42
 

IMPORTANT INFORMATION: All symmetrisations will be switched off!
NOSYMM: (Re-)initialisation of all symmetry stuff for point group C_1.


----------------------------------------------------------------------------------------

                                     Primitive cell                                     

  volume of cell :     671.4522

  direct lattice vectors                    reciprocal lattice vectors
    10.374574939 -0.627959351 -0.418775490     0.096866848  0.005615037  0.003406023
    -0.503147919  8.457969546  0.365981129     0.007538982  0.118272722  0.009416185
    -0.234986390 -0.595200863  7.664206492     0.004932844 -0.005340950  0.130213117

  length of vectors
    10.401995530  8.480822416  7.690874061     0.097089216  0.118886237  0.130415929

  position of ions in fractional coordinates (direct lattice)
     0.015727117  0.975406537  0.983716902
     0.905840853  0.837440820  0.961674414
     0.785115023  0.885742452  0.043270196
     0.751936299  0.041161135  0.966554045
     0.870624173  0.165607388  0.997936586
     0.851490733  0.330823405  0.937821422
     0.523882780  0.059899393  0.964666077
     0.441862606  0.195419601  0.993323732
     0.309811633  0.143828571  0.897740552
     0.248968920  0.993837923  0.983337611
     0.336885457  0.861754141  0.963822839
     0.295745795  0.708574541  0.056427003
     0.233344048  0.519663967  0.520069460
     0.122445507  0.387887278  0.467344757
     0.991625664  0.432397368  0.514858650
     0.970591323  0.602381295  0.472545805
     0.087950135  0.722198317  0.532077982
     0.085211654  0.885162800  0.454985127
     0.739101311  0.615087493  0.481991847
     0.660635268  0.738194567  0.557385446
     0.519481327  0.701991511  0.488529545
     0.468342896  0.528264581  0.520228783
     0.554641769  0.412020976  0.445791794
     0.518065586  0.237616455  0.490712631
     0.042134194  0.004873400  0.123932964
     0.883927510  0.811307961  0.820912012
     0.806721632  0.908329308  0.185569319
     0.727334020  0.024104045  0.824754700
     0.899555538  0.176416582  0.139724816
     0.789960136  0.326862414  0.815685958
     0.948187319  0.393111257  0.916589519
     0.430780895  0.209914161  0.134398309
     0.324318835  0.111144002  0.760507331
     0.240622755  0.021341684  0.123010365
     0.343902099  0.832660966  0.824068694
     0.270686392  0.735947405  0.189551175
     0.380918590  0.643201324  0.066849749
     0.254193599  0.528991971  0.663351170
     0.121723950  0.366278108  0.325311662
     0.987913948  0.423669103  0.657279888
     0.950353506  0.611347364  0.330995953
     0.100189427  0.732089991  0.675438843
     0.081979868  0.866042174  0.312182574
     0.177119709  0.958504344  0.496646257
     0.740891096  0.622753553  0.338582303
     0.665819373  0.727353637  0.700599485
     0.513758164  0.719423992  0.346318696
     0.463871630  0.511837651  0.661648536
     0.553867958  0.422200242  0.302601164
     0.520813808  0.233479078  0.633972627
     0.591425810  0.165962220  0.444926444
     0.875879357  0.616021688  0.042472913
     0.601126874  0.798220754  0.039085374
     0.819694010  0.386136158  0.181206507
     0.584687927  0.370154272  0.982779412
     0.269090166  0.367932580  0.939108213
     0.110021092  0.641935870  0.987229650
     0.164036678  0.262432466  0.675589796
     0.809055691  0.340443634  0.474127170
     0.012289285  0.076042339  0.524710149
     0.806462385  0.904295788  0.520227407
     0.358990862  0.795056792  0.518318088
     0.326650243  0.220421086  0.456309040
     0.530490466  0.033420353  0.823660733
     0.949833551  0.702072800  0.042890481
     0.683043580  0.757903644  0.011559484
     0.646241590  0.100620374  0.048916051
     0.972739300  0.111783927  0.905527677
     0.790180012  0.419937661  0.065198575
     0.123534546  0.934275834  0.901823365
     0.497812999  0.340496309  0.924172125
     0.224474152  0.264391964  0.896376608
     0.464899400  0.918449870  0.041869270
     0.193962806  0.604754565  0.964001250
     0.149744346  0.243809323  0.545963461
     0.892348436  0.320630048  0.426613891
     0.863222077  0.645219833  0.564274477
     0.201197544  0.669618005  0.460656324
     0.978742458  0.963064696  0.503180290
     0.340832962  0.483814206  0.434133394
     0.710304377  0.893145794  0.510030901
     0.447558432  0.809915658  0.574577245
     0.685062761  0.455711089  0.522497778
     0.396533301  0.166495932  0.410991856

  ion indices of the primitive-cell ions
   primitive index   ion index
                 1           1
                 2           2
                 3           3
                 4           4
                 5           5
                 6           6
                 7           7
                 8           8
                 9           9
                10          10
                11          11
                12          12
                13          13
                14          14
                15          15
                16          16
                17          17
                18          18
                19          19
                20          20
                21          21
                22          22
                23          23
                24          24
                25          25
                26          26
                27          27
                28          28
                29          29
                30          30
                31          31
                32          32
                33          33
                34          34
                35          35
                36          36
                37          37
                38          38
                39          39
                40          40
                41          41
                42          42
                43          43
                44          44
                45          45
                46          46
                47          47
                48          48
                49          49
                50          50
                51          51
                52          52
                53          53
                54          54
                55          55
                56          56
                57          57
                58          58
                59          59
                60          60
                61          61
                62          62
                63          63
                64          64
                65          65
                66          66
                67          67
                68          68
                69          69
                70          70
                71          71
                72          72
                73          73
                74          74
                75          75
                76          76
                77          77
                78          78
                79          79
                80          80
                81          81
                82          82
                83          83
                84          84

----------------------------------------------------------------------------------------

 
 
 KPOINTS: KPOINTS created by Atomic Simulation Env

Automatic generation of k-mesh.
 Grid dimensions read from file:
 generate k-points for:    1    1    1

 Generating k-lattice:

  Cartesian coordinates                     Fractional coordinates (reciprocal lattice)
     0.096866848  0.005615037  0.003406023     1.000000000  0.000000000  0.000000000
     0.007538982  0.118272722  0.009416185    -0.000000000  1.000000000 -0.000000000
     0.004932844 -0.005340950  0.130213117     0.000000000 -0.000000000  1.000000000

  Length of vectors
     0.097089216  0.118886237  0.130415929

  Shift w.r.t. Gamma in fractional coordinates (k-lattice)
     0.000000000  0.000000000  0.000000000

 
 Subroutine IBZKPT returns following result:
 ===========================================
 
 Found      1 irreducible k-points:
 
 Following reciprocal coordinates:
            Coordinates               Weight
  0.000000  0.000000  0.000000      1.000000
 
 Following cartesian coordinates:
            Coordinates               Weight
  0.000000  0.000000  0.000000      1.000000
 


--------------------------------------------------------------------------------------------------------




 Dimension of arrays:
   k-points           NKPTS =      1   k-points in BZ     NKDIM =      1   number of bands    NBANDS=    171
   number of dos      NEDOS =    301   number of ions     NIONS =     84
   non local maximal  LDIM  =      4   non local SUM 2l+1 LMDIM =      8
   total plane-waves  NPLWV = 103680
   max r-space proj   IRMAX =   1244   max aug-charges    IRDMAX=   2203
   dimension x,y,z NGX =    54 NGY =   48 NGZ =   40
   dimension x,y,z NGXF=   108 NGYF=   96 NGZF=   80
   support grid    NGXF=   108 NGYF=   96 NGZF=   80
   ions per type =              24  40  20
   NGX,Y,Z   is equivalent  to a cutoff of   8.63,  9.41,  8.65 a.u.
   NGXF,Y,Z  is equivalent  to a cutoff of  17.26, 18.82, 17.29 a.u.

 SYSTEM =  unknown system                          
 POSCAR =  C  H  O                                 

 Startparameter for this run:
   NWRITE =      2    write-flag & timer
   PREC   = normal    normal or accurate (medium, high low for compatibility)
   ISTART =      0    job   : 0-new  1-cont  2-samecut
   ICHARG =      2    charge: 1-file 2-atom 10-const
   ISPIN  =      1    spin polarized calculation?
   LNONCOLLINEAR =      F non collinear calculations
   LSORBIT =      F    spin-orbit coupling
   INIWAV =      1    electr: 0-lowe 1-rand  2-diag
   LASPH  =      F    aspherical Exc in radial PAW
 Electronic Relaxation 1
   ENCUT  =  450.0 eV  33.07 Ry    5.75 a.u.  17.99 14.67 13.30*2*pi/ulx,y,z
   ENINI  =  450.0     initial cutoff
   ENAUG  =  644.9 eV  augmentation charge cutoff
   NELM   =     60;   NELMIN=  2; NELMDL= -5     # of ELM steps 
   EDIFF  = 0.1E-03   stopping-criterion for ELM
   LREAL  =      T    real-space projection
   NLSPLINE    = F    spline interpolate recip. space projectors
   LCOMPAT=      F    compatible to vasp.4.4
   GGA_COMPAT  = T    GGA compatible to vasp.4.4-vasp.4.6
   LMAXPAW     = -100 max onsite density
   LMAXMIX     =    2 max onsite mixed and CHGCAR
   VOSKOWN=      0    Vosko Wilk Nusair interpolation
   ROPT   =   -0.00050  -0.00050  -0.00050
 Ionic relaxation
   EDIFFG = 0.1E-02   stopping-criterion for IOM
   NSW    =     10    number of steps for IOM
   NBLOCK =      1;   KBLOCK =     10    inner block; outer block 
   IBRION =      0    ionic relax: 0-MD 1-quasi-New 2-CG
   NFREE  =      0    steps in history (QN), initial steepest desc. (CG)
   ISIF   =      2    stress and relaxation
   IWAVPR =     12    prediction:  0-non 1-charg 2-wave 3-comb
   ISYM   =      0    0-nonsym 1-usesym 2-fastsym
   LCORR  =      T    Harris-Foulkes like correction to forces

   POTIM  = 0.5000    time-step for ionic-motion
   TEIN   =    0.0    initial temperature
   TEBEG  =  300.0;   TEEND  = 300.0 temperature during run
   SMASS  =  -3.00    Nose mass-parameter (am)
   estimated Nose-frequenzy (Omega)   =  0.10E-29 period in steps = 0.13E+47 mass=  -0.247E-26a.u.
   SCALEE = 1.0000    scale energy and forces
   NPACO  =    256;   APACO  = 10.0  distance and # of slots for P.C.
   PSTRESS=    0.0 pullay stress

  Mass of Ions in am
   POMASS =  12.01  1.00 16.00
  Ionic Valenz
   ZVAL   =   4.00  1.00  6.00
  Atomic Wigner-Seitz radii
   RWIGS  =  -1.00 -1.00 -1.00
  virtual crystal weights 
   VCA    =   1.00  1.00  1.00
   NELECT =     256.0000    total number of electrons
   NUPDOWN=      -1.0000    fix difference up-down

 DOS related values:
   EMIN   =  10.00;   EMAX   =-10.00  energy-range for DOS
   EFERMI =   0.00;   METHOD = LEGACY      
   ISMEAR =     0;   SIGMA  =   0.05  broadening in eV -4-tet -1-fermi 0-gaus
   EFERMI_NEDOS =   21; number of points for ismear=-14 and -15

 Electronic relaxation 2 (details)
   IALGO  =     68    algorithm
   LDIAG  =      T    sub-space diagonalisation (order eigenvalues)
   LSUBROT=      F    optimize rotation matrix (better conditioning)
   LROBUST=      F    robust break criterion during scf (extrapolated energy error)
   ISEARCH=      0    line search for conjugate gradient (0, 1=use gradient)
   TURBO    =      0    0=normal 1=particle mesh
   IRESTART =      0    0=no restart 2=restart with 2 vectors
   NREBOOT  =      0    no. of reboots
   NMIN     =      0    reboot dimension
   EREF     =   0.00    reference energy to select bands
   IMIX   =      4    mixing-type and parameters
     AMIX     =   0.40;   BMIX     =  1.00
     AMIX_MAG =   1.60;   BMIX_MAG =  1.00
     AMIN     =   0.10
     WC   =   100.;   INIMIX=   1;  MIXPRE=   1;  MAXMIX= -45

 Intra band minimization:
   WEIMIN = 0.0010     energy-eigenvalue tresh-hold
   EBREAK =  0.15E-06  absolut break condition
   DEPER  =   0.30     relativ break condition  

   TIME   =   0.40     timestep for ELM

  volume/ion in A,a.u.               =       7.99        53.94
  Fermi-wavevector in a.u.,A,eV,Ry     =   1.187089  2.243272 19.173048  1.409179
  Thomas-Fermi vector in A             =   2.323247
 
 Write flags
   LWAVE        =      F    write WAVECAR
   LDOWNSAMPLE  =      F    k-point downsampling of WAVECAR
   LCHARG       =      F    write CHGCAR
   LVTOT        =      F    write LOCPOT, total local potential
   LVHAR        =      F    write LOCPOT, Hartree potential only
   WRT_POTENTIAL= false  ! write potential to hdf5 file
   LELF         =      F    write electronic localiz. function (ELF)
   LORBIT       =      0    0 simple, 1 ext, 2 COOP (PROOUT), +10 PAW based schemes


 Python interface
   PLUGINS active      =      F    recompile with -DPLUGINS to activate
 
 Dipole corrections
   LMONO      =      F    monopole corrections only (constant potential shift)
   LDIPOL     =      F    correct potential (dipole corrections)
   IDIPOL     =      0    1-x, 2-y, 3-z, 4-all directions 
   EPSILON    =  1.0000000 bulk dielectric constant
   LVACPOTAV  =      F  vacuum potentials using an averaging scheme for the charge density
   VACPOTFLAT =  0.1000000 required flatness to determine vacuum potential
 
Coulomb truncation method
  LTRUNCATE          =      F  Coulomb kernel truncation to be used

 
 Exchange correlation treatment:
   GGA     = PE    functional components
   XC_C    = 1    coefficients multiplying the functional components
   LIBXC   =     F    Libxc                    
   VOSKOWN =     0    Vosko Wilk Nusair interpolation
   LHFCALC =     F    Hartree Fock is set to
   LHFONE  =     F    Hartree Fock one center treatment
   AEXX    =    0.0000 exact exchange contribution

 Parameters of functionals:
   PE:
     No parameter
 
 Van der Waals corrections
   IVDW    =    12    specifies the selected vdW correction

 Linear response parameters
   LEPSILON=     F    determine dielectric tensor
   LRPA    =     F    only Hartree local field effects (RPA)
   LNABLA  =     F    use nabla operator in PAW spheres
   LVEL    =     F    velocity operator in full k-point grid
   CSHIFT  =0.1000    complex shift for real part using Kramers Kronig
   OMEGAMAX=  -1.0    maximum frequency
   DEG_THRESHOLD= 0.2000000E-02 threshold for treating states as degnerate
   RTIME   =   -0.100 relaxation time in fs
  (WPLASMAI=    0.000 imaginary part of plasma frequency in eV, 0.658/RTIME)
   DFIELD  = 0.0000000 0.0000000 0.0000000 field for delta impulse in time
 
  Optional k-point grid parameters
   LKPOINTS_OPT  =     F    use optional k-point grid
   KPOINTS_OPT_MODE=     1    mode for optional k-point grid
 
 Orbital magnetization related:
   ORBITALMAG=     F  switch on orbital magnetization
   LCHIMAG   =     F  perturbation theory with respect to B field
   DQ        =  0.001000  dq finite difference perturbation B field
   LLRAUG    =     F  two centre corrections for induced B field
   LBONE     =     F  B-component reconstruction in AE one-centre
   LVGVCALC  =     T  calculate vGv susceptibility
   LVGVAPPL  =     F  apply vGv susceptibility instead of pGv for G=0

 Random number generation:
   RANDOM_GENERATOR = DEFAULT
   PCG_SEED         = not used


--------------------------------------------------------------------------------------------------------


 molecular dynamics for ions
   using a microcanonical ensemble
 charge density and potential will be updated during run
 non-spin polarized calculation
 RMM-DIIS sequential band-by-band and
  variant of blocked Davidson during initial phase
 perform sub-space diagonalisation
    before iterative eigenvector-optimisation
 modified Broyden-mixing scheme, WC =      100.0
 initial mixing is a Kerker type mixing with AMIX =  0.4000 and BMIX =      1.0000
 Hartree-type preconditioning will be used
 using additional bands            43
 real space projection scheme for non local part
 use partial core corrections
 calculate Harris-corrections to forces 
   (improved forces if not selfconsistent)
 use gradient corrections 
 use of overlap-Matrix (Vanderbilt PP)
 Gauss-broadening in eV      SIGMA  =   0.05


--------------------------------------------------------------------------------------------------------


  energy-cutoff  :      450.00
  volume of cell :      671.45
      direct lattice vectors                 reciprocal lattice vectors
    10.374574939 -0.627959351 -0.418775490     0.096866848  0.005615037  0.003406023
    -0.503147919  8.457969546  0.365981129     0.007538982  0.118272722  0.009416185
    -0.234986390 -0.595200863  7.664206492     0.004932844 -0.005340950  0.130213117

  length of vectors
    10.401995530  8.480822416  7.690874061     0.097089216  0.118886237  0.130415929


 
 k-points in units of 2pi/SCALE and weight: KPOINTS created by Atomic Simulation Env
   0.00000000  0.00000000  0.00000000       1.000
 
 k-points in reciprocal lattice and weights: KPOINTS created by Atomic Simulation Env
   0.00000000  0.00000000  0.00000000       1.000
 
 position of ions in fractional coordinates (direct lattice) 
   0.01572712  0.97540654  0.98371690
   0.90584085  0.83744082  0.96167441
   0.78511502  0.88574245  0.04327020
   0.75193630  0.04116114  0.96655404
   0.87062417  0.16560739  0.99793659
   0.85149073  0.33082340  0.93782142
   0.52388278  0.05989939  0.96466608
   0.44186261  0.19541960  0.99332373
   0.30981163  0.14382857  0.89774055
   0.24896892  0.99383792  0.98333761
   0.33688546  0.86175414  0.96382284
   0.29574580  0.70857454  0.05642700
   0.23334405  0.51966397  0.52006946
   0.12244551  0.38788728  0.46734476
   0.99162566  0.43239737  0.51485865
   0.97059132  0.60238129  0.47254580
   0.08795014  0.72219832  0.53207798
   0.08521165  0.88516280  0.45498513
   0.73910131  0.61508749  0.48199185
   0.66063527  0.73819457  0.55738545
   0.51948133  0.70199151  0.48852954
   0.46834290  0.52826458  0.52022878
   0.55464177  0.41202098  0.44579179
   0.51806559  0.23761646  0.49071263
   0.04213419  0.00487340  0.12393296
   0.88392751  0.81130796  0.82091201
   0.80672163  0.90832931  0.18556932
   0.72733402  0.02410404  0.82475470
   0.89955554  0.17641658  0.13972482
   0.78996014  0.32686241  0.81568596
   0.94818732  0.39311126  0.91658952
   0.43078089  0.20991416  0.13439831
   0.32431884  0.11114400  0.76050733
   0.24062275  0.02134168  0.12301036
   0.34390210  0.83266097  0.82406869
   0.27068639  0.73594741  0.18955118
   0.38091859  0.64320132  0.06684975
   0.25419360  0.52899197  0.66335117
   0.12172395  0.36627811  0.32531166
   0.98791395  0.42366910  0.65727989
   0.95035351  0.61134736  0.33099595
   0.10018943  0.73208999  0.67543884
   0.08197987  0.86604217  0.31218257
   0.17711971  0.95850434  0.49664626
   0.74089110  0.62275355  0.33858230
   0.66581937  0.72735364  0.70059948
   0.51375816  0.71942399  0.34631870
   0.46387163  0.51183765  0.66164854
   0.55386796  0.42220024  0.30260116
   0.52081381  0.23347908  0.63397263
   0.59142581  0.16596222  0.44492644
   0.87587936  0.61602169  0.04247291
   0.60112687  0.79822075  0.03908537
   0.81969401  0.38613616  0.18120651
   0.58468793  0.37015427  0.98277941
   0.26909017  0.36793258  0.93910821
   0.11002109  0.64193587  0.98722965
   0.16403668  0.26243247  0.67558980
   0.80905569  0.34044363  0.47412717
   0.01228928  0.07604234  0.52471015
   0.80646239  0.90429579  0.52022741
   0.35899086  0.79505679  0.51831809
   0.32665024  0.22042109  0.45630904
   0.53049047  0.03342035  0.82366073
   0.94983355  0.70207280  0.04289048
   0.68304358  0.75790364  0.01155948
   0.64624159  0.10062037  0.04891605
   0.97273930  0.11178393  0.90552768
   0.79018001  0.41993766  0.06519857
   0.12353455  0.93427583  0.90182336
   0.49781300  0.34049631  0.92417212
   0.22447415  0.26439196  0.89637661
   0.46489940  0.91844987  0.04186927
   0.19396281  0.60475456  0.96400125
   0.14974435  0.24380932  0.54596346
   0.89234844  0.32063005  0.42661389
   0.86322208  0.64521983  0.56427448
   0.20119754  0.66961801  0.46065632
   0.97874246  0.96306470  0.50318029
   0.34083296  0.48381421  0.43413339
   0.71030438  0.89314579  0.51003090
   0.44755843  0.80991566  0.57457724
   0.68506276  0.45571109  0.52249778
   0.39653330  0.16649593  0.41099186
 
 position of ions in cartesian coordinates  (Angst):
  -0.55877169  7.65457364  7.88980372
   8.75037681  5.94182828  7.29761488
   7.68940726  6.97280791  0.32700981
   7.55318230 -0.69933960  7.10804149
   8.71452920  0.26001293  7.34440517
   8.44702604  1.70520059  6.95214870
   5.17823951 -0.39651993  7.19593279
   4.25239420  0.78415414  7.49951685
   2.93084015  0.48761261  6.80336599
   1.85182828  7.66422513  7.79596635
   2.83496837  6.50347172  7.56124364
   2.69845953  5.77380015  0.56794203
   2.03716822  3.93922563  4.07838817
   0.96533575  2.92568398  3.67250896
   9.94915015  2.72805885  3.68896376
   9.65534368  4.20417108  3.43568895
   0.42404161  5.73640899  4.30543512
   0.33175156  7.16236301  3.77536829
   7.24512042  4.45138374  3.60967794
   6.35141104  5.49701878  4.26542458
   4.92139460  5.32043646  3.78356091
   4.47081656  3.86430481  3.98434516
   5.44211010  2.87123272  3.33516189
   5.13984323  1.39235603  3.63093290
   0.40554975 -0.05900450  0.93398663
   8.56926113  5.81833994  6.21839540
   7.86876376  7.06558221  1.41683772
   7.33984727 -0.74375963  6.02532229
   9.21090927  0.84407744  0.75873317
   7.83936539  1.78303250  6.04039515
   9.42386122  2.18394507  6.77172503
   4.33196903  1.42494070  0.92648053
   3.13003932  0.28373892  5.73354505
   2.45671502 -0.04380987  0.84982058
   2.95524153  6.33617815  6.47655307
   2.39342390  5.94181967  1.60874539
   3.61253427  5.16118679  0.58823045
   2.21511084  3.91974754  5.17121138
   1.00209836  2.82790561  2.57633162
   9.88156723  2.57179701  4.77886953
   9.47413596  4.37696494  2.36257817
   0.51235423  5.72705818  5.40267701
   0.34140031  7.08766697  2.67525564
   1.23856711  7.70017229  4.08302057
   7.29353081  4.60045662  2.51261370
   6.37699517  5.31682999  5.35690799
   4.88666571  5.55611779  2.70240428
   4.39946254  3.64400096  5.06407586
   5.46260831  3.04304175  2.24176880
   5.13677243  1.27036798  4.72624200
   5.94773619  0.76749143  3.22307255
   8.76694544  4.63499613  0.18417668
   5.82562816  6.35057994  0.33995491
   8.26711227  2.64333908  1.18685487
   5.64870657  2.17864215  7.42284085
   2.38589393  2.38402685  7.21948728
   0.58644784  4.77278532  7.75519417
   1.41101405  1.71452581  5.20521049
   8.11090195  2.08920690  3.41959179
  -0.03406418  0.32313868  4.04417054
   7.78946355  6.83244084  3.98035878
   3.20254873  6.19063109  4.11313606
   3.17072660  1.38759623  3.44112355
   5.29324865 -0.54070170  6.10278075
   9.49079420  5.31612505  0.18789988
   6.70223284  5.97452212  0.07993080
   6.64236026  0.41611573  0.14109773
   9.82272624 -0.20434654  6.57370253
   7.97117021  3.01681277  0.32247658
   0.59962325  7.28773583  7.20195457
   4.77611038  2.01723304  6.99918934
   1.98515934  1.56173441  6.87277361
   4.35117882  7.45136248  0.46234158
   1.48147349  4.41942056  7.52840653
   1.30256780  1.64314054  4.21089705
   8.99616293  1.89759968  3.01330785
   8.49832429  4.57932466  4.19935814
   1.64217413  5.26308177  3.69137614
   9.55123246  7.23146805  3.79906779
   3.19055156  3.61966000  3.36162235
   6.79987122  6.80458681  3.93839859
   4.10070329  6.22720459  4.51266599
   6.75516500  3.11320781  3.88442503
   3.93351488  0.91458802  3.04480239
 


--------------------------------------------------------------------------------------------------------


 k-point     1 :   0.0000 0.0000 0.0000  plane waves:   14563

 maximum and minimum number of plane-waves per node :     14563    14563

 maximum number of plane-waves:     14563
 maximum index in each direction: 
   IXMAX=   17   IYMAX=   14   IZMAX=   13
   IXMIN=  -17   IYMIN=  -14   IZMIN=  -13


 serial   3D FFT for wavefunctions
 parallel 3D FFT for charge:
    minimum data exchange during FFTs selected (reduces bandwidth)


 total amount of memory used by VASP MPI-rank0   166178. kBytes
=======================================================================

   base                                    :      30000. kBytes
   nonlr-proj                              :       7358. kBytes
   fftplans                                :      28940. kBytes
   grid                                    :      58268. kBytes
   one-center                              :        258. kBytes
   wavefun                                 :      41354. kBytes
 
     INWAV:  cpu time      0.0000: real time      0.0000
 Broyden mixing: mesh for mixing (old mesh)
   NGX = 35   NGY = 29   NGZ = 27
  (NGX  =108   NGY  = 96   NGZ  = 80)
  gives a total of  27405 points

 initial charge density was supplied:
 charge density of overlapping atoms calculated
 number of electron     256.0000000 magnetization 
 keeping initial charge density in first step


--------------------------------------------------------------------------------------------------------


 Maximum index for non-local projection operator          1171
 Maximum index for augmentation-charges          1954 (set IRDMAX)


--------------------------------------------------------------------------------------------------------


 First call to EWALD:  gamma=   0.202
 Maximum number of real-space cells   2x   3x   3
 Maximum number of reciprocal cells   3x   3x   2

    FEWALD:  cpu time      0.1343: real time      0.1344


--------------------------------------- Ionic step        1  -------------------------------------------




--------------------------------------- Iteration      1(   1)  ---------------------------------------


    POTLOK:  cpu time      0.0330: real time      0.0333
    SETDIJ:  cpu time      0.0570: real time      0.0290
     EDDAV:  cpu time      0.7381: real time      3.6524
       DOS:  cpu time      0.0002: real time      0.0006
    --------------------------------------------
      LOOP:  cpu time      0.8284: real time      3.7155

 eigenvalue-minimisations  :   342
 total energy-change (2. order) : 0.1364364E+04  (-0.1204352E+05)
 number of electron     256.0000000 magnetization 
 augmentation part      256.0000000 magnetization 

 Free energy of the ion-electron system (eV)
  ---------------------------------------------------
  alpha Z        PSCENC =       401.66401064
  Ewald energy   TEWEN  =     -6160.57525716
  -Hartree energ DENC   =     -5743.53544927
  -exchange      EXHF   =         0.00000000
  -V(xc)+E(xc)   XCENC  =       978.78904031
  PAW double counting   =      9620.87974837    -9670.87401246
  entropy T*S    EENTRO =        -0.03800066
  eigenvalues    EBANDS =      -739.56445142
  atomic energy  EATOM  =     12677.61814180
  Solvation  Ediel_sol  =         0.00000000
  ---------------------------------------------------
  free energy    TOTEN  =      1364.36377016 eV

  energy without entropy =     1364.40177081  energy(sigma->0) =     1364.38277049


--------------------------------------------------------------------------------------------------------




--------------------------------------- Iteration      1(   2)  ---------------------------------------


     EDDAV:  cpu time      0.6310: real time      0.6306
       DOS:  cpu time      0.0001: real time      0.0001
    --------------------------------------------
      LOOP:  cpu time      0.6311: real time      0.6308

 eigenvalue-minimisations  :   425
 total energy-change (2. order) :-0.1755256E+04  (-0.1691651E+04)
 number of electron     256.0000000 magnetization 
 augmentation part      256.0000000 magnetization 

 Free energy of the ion-electron system (eV)
  ---------------------------------------------------
  alpha Z        PSCENC =       401.66401064
  Ewald energy   TEWEN  =     -6160.57525716
  -Hartree energ DENC   =     -5743.53544927
  -exchange      EXHF   =         0.00000000
  -V(xc)+E(xc)   XCENC  =       978.78904031
  PAW double counting   =      9620.87974837    -9670.87401246
  entropy T*S    EENTRO =        -0.00000000
  eigenvalues    EBANDS =     -2494.85819930
  atomic energy  EATOM  =     12677.61814180
  Solvation  Ediel_sol  =         0.00000000
  ---------------------------------------------------
  free energy    TOTEN  =      -390.89197707 eV

  energy without entropy =     -390.89197707  energy(sigma->0) =     -390.89197707


--------------------------------------------------------------------------------------------------------




--------------------------------------- Iteration      1(   3)  ---------------------------------------


     EDDAV:  cpu time      0.6224: real time      0.6220
       DOS:  cpu time      0.0001: real time      0.0001
    --------------------------------------------
      LOOP:  cpu time      0.6225: real time      0.6220

 eigenvalue-minimisations  :   420
 total energy-change (2. order) :-0.1327801E+03  (-0.1317271E+03)
 number of electron     256.0000000 magnetization 
 augmentation part      256.0000000 magnetization 

 Free energy of the ion-electron system (eV)
  ---------------------------------------------------
  alpha Z        PSCENC =       401.66401064
  Ewald energy   TEWEN  =     -6160.57525716
  -Hartree energ DENC   =     -5743.53544927
  -exchange      EXHF   =         0.00000000
  -V(xc)+E(xc)   XCENC  =       978.78904031
  PAW double counting   =      9620.87974837    -9670.87401246
  entropy T*S    EENTRO =        -0.00000000
  eigenvalues    EBANDS =     -2627.63825566
  atomic energy  EATOM  =     12677.61814180
  Solvation  Ediel_sol  =         0.00000000
  ---------------------------------------------------
  free energy    TOTEN  =      -523.67203343 eV

  energy without entropy =     -523.67203343  energy(sigma->0) =     -523.67203343


--------------------------------------------------------------------------------------------------------




--------------------------------------- Iteration      1(   4)  ---------------------------------------


     EDDAV:  cpu time      0.6402: real time      0.6396
       DOS:  cpu time      0.0001: real time      0.0001
    --------------------------------------------
      LOOP:  cpu time      0.6403: real time      0.6397

 eigenvalue-minimisations  :   436
 total energy-change (2. order) :-0.2735631E+01  (-0.2726630E+01)
 number of electron     256.0000000 magnetization 
 augmentation part      256.0000000 magnetization 

 Free energy of the ion-electron system (eV)
  ---------------------------------------------------
  alpha Z        PSCENC =       401.66401064
  Ewald energy   TEWEN  =     -6160.57525716
  -Hartree energ DENC   =     -5743.53544927
  -exchange      EXHF   =         0.00000000
  -V(xc)+E(xc)   XCENC  =       978.78904031
  PAW double counting   =      9620.87974837    -9670.87401246
  entropy T*S    EENTRO =        -0.00000000
  eigenvalues    EBANDS =     -2630.37388617
  atomic energy  EATOM  =     12677.61814180
  Solvation  Ediel_sol  =         0.00000000
  ---------------------------------------------------
  free energy    TOTEN  =      -526.40766394 eV

  energy without entropy =     -526.40766394  energy(sigma->0) =     -526.40766394


--------------------------------------------------------------------------------------------------------




--------------------------------------- Iteration      1(   5)  ---------------------------------------


     EDDAV:  cpu time      0.6210: real time      0.6205
       DOS:  cpu time      0.0001: real time      0.0001
    CHARGE:  cpu time      0.0457: real time      0.0484
    MIXING:  cpu time      0.0142: real time      0.0085
    --------------------------------------------
      LOOP:  cpu time      0.6810: real time      0.6774

 eigenvalue-minimisations  :   420
 total energy-change (2. order) :-0.7141758E-01  (-0.7131907E-01)
 number of electron     255.9999933 magnetization 
 augmentation part       17.6333570 magnetization 

 Broyden mixing:
  rms(total) = 0.36787E+01    rms(broyden)= 0.36727E+01
  rms(prec ) = 0.45250E+01
  weight for this iteration     100.00

 Free energy of the ion-electron system (eV)
  ---------------------------------------------------
  alpha Z        PSCENC =       401.66401064
  Ewald energy   TEWEN  =     -6160.57525716
  -Hartree energ DENC   =     -5743.53544927
  -exchange      EXHF   =         0.00000000
  -V(xc)+E(xc)   XCENC  =       978.78904031
  PAW double counting   =      9620.87974837    -9670.87401246
  entropy T*S    EENTRO =        -0.00000000
  eigenvalues    EBANDS =     -2630.44530375
  atomic energy  EATOM  =     12677.61814180
  Solvation  Ediel_sol  =         0.00000000
  ---------------------------------------------------
  free energy    TOTEN  =      -526.47908152 eV

  energy without entropy =     -526.47908152  energy(sigma->0) =     -526.47908152


--------------------------------------------------------------------------------------------------------




--------------------------------------- Iteration      1(   6)  ---------------------------------------


    POTLOK:  cpu time      0.0222: real time      0.0213
    SETDIJ:  cpu time      0.0550: real time      0.0276
    EDDIAG:  cpu time      0.0721: real time      0.0716
  RMM-DIIS:  cpu time      0.2218: real time      0.2314
    ORTHCH:  cpu time      0.0225: real time      0.0225
       DOS:  cpu time      0.0001: real time      0.0001
    CHARGE:  cpu time      0.0380: real time      0.0359
    MIXING:  cpu time      0.0146: real time      0.0093
    --------------------------------------------
      LOOP:  cpu time      0.4464: real time      0.4196

 eigenvalue-minimisations  :   342
 total energy-change (2. order) : 0.2657619E+02  (-0.5192349E+01)
 number of electron     255.9999940 magnetization 
 augmentation part       16.3921231 magnetization 

 Broyden mixing:
  rms(total) = 0.18348E+01    rms(broyden)= 0.18345E+01
  rms(prec ) = 0.21757E+01
  weight for this iteration     100.00

 eigenvalues of (default mixing * dielectric matrix)
  average eigenvalue GAMMA=   1.5014
  1.5014

 Free energy of the ion-electron system (eV)
  ---------------------------------------------------
  alpha Z        PSCENC =       401.66401064
  Ewald energy   TEWEN  =     -6160.57525716
  -Hartree energ DENC   =     -6096.97741113
  -exchange      EXHF   =         0.00000000
  -V(xc)+E(xc)   XCENC  =      1001.52181140
  PAW double counting   =     13140.33777368   -13196.59257812
  entropy T*S    EENTRO =        -0.00000000
  eigenvalues    EBANDS =     -2266.89938753
  atomic energy  EATOM  =     12677.61814180
  Solvation  Ediel_sol  =         0.00000000
  ---------------------------------------------------
  free energy    TOTEN  =      -499.90289642 eV

  energy without entropy =     -499.90289642  energy(sigma->0) =     -499.90289642


--------------------------------------------------------------------------------------------------------




--------------------------------------- Iteration      1(   7)  ---------------------------------------


    POTLOK:  cpu time      0.0208: real time      0.0199
    SETDIJ:  cpu time      0.0538: real time      0.0269
    EDDIAG:  cpu time      0.0729: real time      0.0724
  RMM-DIIS:  cpu time      0.2196: real time      0.2187
    ORTHCH:  cpu time      0.0224: real time      0.0225
       DOS:  cpu time      0.0001: real time      0.0001
    CHARGE:  cpu time      0.0371: real time      0.0347
    MIXING:  cpu time      0.0167: real time      0.0127
    --------------------------------------------
      LOOP:  cpu time      0.4433: real time      0.4079

 eigenvalue-minimisations  :   342
 total energy-change (2. order) : 0.3738868E+01  (-0.2014692E+01)
 number of electron     255.9999943 magnetization 
 augmentation part       15.8861836 magnetization 

 Broyden mixing:
  rms(total) = 0.83112E+00    rms(broyden)= 0.83078E+00
  rms(prec ) = 0.92967E+00
  weight for this iteration     100.00

 eigenvalues of (default mixing * dielectric matrix)
  average eigenvalue GAMMA=   1.7752
  1.4067  2.1437

 Free energy of the ion-electron system (eV)
  ---------------------------------------------------
  alpha Z        PSCENC =       401.66401064
  Ewald energy   TEWEN  =     -6160.57525716
  -Hartree energ DENC   =     -6284.10184914
  -exchange      EXHF   =         0.00000000
  -V(xc)+E(xc)   XCENC  =      1014.64933491
  PAW double counting   =     16873.93330152   -16932.36730085
  entropy T*S    EENTRO =        -0.00000000
  eigenvalues    EBANDS =     -2086.98440968
  atomic energy  EATOM  =     12677.61814180
  Solvation  Ediel_sol  =         0.00000000
  ---------------------------------------------------
  free energy    TOTEN  =      -496.16402797 eV

  energy without entropy =     -496.16402797  energy(sigma->0) =     -496.16402797


--------------------------------------------------------------------------------------------------------




--------------------------------------- Iteration      1(   8)  ---------------------------------------


    POTLOK:  cpu time      0.0198: real time      0.0190
    SETDIJ:  cpu time      0.0545: real time      0.0273
    EDDIAG:  cpu time      0.0730: real time      0.0724
  RMM-DIIS:  cpu time      0.2202: real time      0.2193
    ORTHCH:  cpu time      0.0228: real time      0.0229
       DOS:  cpu time      0.0002: real time      0.0002
    CHARGE:  cpu time      0.0454: real time      0.0425
    MIXING:  cpu time      0.0217: real time      0.2575
    --------------------------------------------
      LOOP:  cpu time      0.4576: real time      0.6610

 eigenvalue-minimisations  :   342
 total energy-change (2. order) : 0.2847369E+00  (-0.2131435E+00)
 number of electron     255.9999942 magnetization 
 augmentation part       16.0319083 magnetization 

 Broyden mixing:
  rms(total) = 0.20131E+00    rms(broyden)= 0.20121E+00
  rms(prec ) = 0.24155E+00
  weight for this iteration     100.00

 eigenvalues of (default mixing * dielectric matrix)
  average eigenvalue GAMMA=   1.6889
  2.4732  1.2967  1.2967

 Free energy of the ion-electron system (eV)
  ---------------------------------------------------
  alpha Z        PSCENC =       401.66401064
  Ewald energy   TEWEN  =     -6160.57525716
  -Hartree energ DENC   =     -6294.30172293
  -exchange      EXHF   =         0.00000000
  -V(xc)+E(xc)   XCENC  =      1016.93015171
  PAW double counting   =     19165.29649666   -19222.90337828
  entropy T*S    EENTRO =        -0.00000000
  eigenvalues    EBANDS =     -2079.60773347
  atomic energy  EATOM  =     12677.61814180
  Solvation  Ediel_sol  =         0.00000000
  ---------------------------------------------------
  free energy    TOTEN  =      -495.87929102 eV

  energy without entropy =     -495.87929102  energy(sigma->0) =     -495.87929102


--------------------------------------------------------------------------------------------------------




--------------------------------------- Iteration      1(   9)  ---------------------------------------


    POTLOK:  cpu time      0.0215: real time      0.0207
    SETDIJ:  cpu time      0.0575: real time      0.0289
    EDDIAG:  cpu time      0.0745: real time      0.0740
  RMM-DIIS:  cpu time      0.2299: real time      0.2288
    ORTHCH:  cpu time      0.0227: real time      0.0227
       DOS:  cpu time      0.0001: real time      0.0001
    CHARGE:  cpu time      0.0416: real time      0.0396
    MIXING:  cpu time      0.0194: real time      0.0115
    --------------------------------------------
      LOOP:  cpu time      0.4671: real time      0.4262

 eigenvalue-minimisations  :   344
 total energy-change (2. order) : 0.9971123E-02  (-0.4300471E-01)
 number of electron     255.9999943 magnetization 
 augmentation part       15.9585594 magnetization 

 Broyden mixing:
  rms(total) = 0.64463E-01    rms(broyden)= 0.64422E-01
  rms(prec ) = 0.78040E-01
  weight for this iteration     100.00

 eigenvalues of (default mixing * dielectric matrix)
  average eigenvalue GAMMA=   1.6972
  1.1573  1.1573  2.2372  2.2372

 Free energy of the ion-electron system (eV)
  ---------------------------------------------------
  alpha Z        PSCENC =       401.66401064
  Ewald energy   TEWEN  =     -6160.57525716
  -Hartree energ DENC   =     -6323.95960018
  -exchange      EXHF   =         0.00000000
  -V(xc)+E(xc)   XCENC  =      1019.27291499
  PAW double counting   =     19834.31017780   -19892.23214454
  entropy T*S    EENTRO =        -0.00000000
  eigenvalues    EBANDS =     -2051.96756325
  atomic energy  EATOM  =     12677.61814180
  Solvation  Ediel_sol  =         0.00000000
  ---------------------------------------------------
  free energy    TOTEN  =      -495.86931990 eV

  energy without entropy =     -495.86931990  energy(sigma->0) =     -495.86931990


--------------------------------------------------------------------------------------------------------




--------------------------------------- Iteration      1(  10)  ---------------------------------------


    POTLOK:  cpu time      0.0208: real time      0.0198
    SETDIJ:  cpu time      0.0585: real time      0.0293
    EDDIAG:  cpu time      0.0743: real time      0.0738
  RMM-DIIS:  cpu time      0.2438: real time      0.2427
    ORTHCH:  cpu time      0.0225: real time      0.0225
       DOS:  cpu time      0.0001: real time      0.0001
    CHARGE:  cpu time      0.0429: real time      0.0408
    MIXING:  cpu time      0.0193: real time      0.0117
    --------------------------------------------
      LOOP:  cpu time      0.4821: real time      0.4408

 eigenvalue-minimisations  :   365
 total energy-change (2. order) :-0.1016285E-01  (-0.1095307E-01)
 number of electron     255.9999943 magnetization 
 augmentation part       15.9350668 magnetization 

 Broyden mixing:
  rms(total) = 0.35896E-01    rms(broyden)= 0.35873E-01
  rms(prec ) = 0.44955E-01
  weight for this iteration     100.00

 eigenvalues of (default mixing * dielectric matrix)
  average eigenvalue GAMMA=   1.6784
  2.3195  2.3195  1.0029  1.3751  1.3751

 Free energy of the ion-electron system (eV)
  ---------------------------------------------------
  alpha Z        PSCENC =       401.66401064
  Ewald energy   TEWEN  =     -6160.57525716
  -Hartree energ DENC   =     -6319.78335038
  -exchange      EXHF   =         0.00000000
  -V(xc)+E(xc)   XCENC  =      1019.02864086
  PAW double counting   =     19791.48219933   -19849.26026098
  entropy T*S    EENTRO =        -0.00000000
  eigenvalues    EBANDS =     -2056.05360686
  atomic energy  EATOM  =     12677.61814180
  Solvation  Ediel_sol  =         0.00000000
  ---------------------------------------------------
  free energy    TOTEN  =      -495.87948275 eV

  energy without entropy =     -495.87948275  energy(sigma->0) =     -495.87948275


--------------------------------------------------------------------------------------------------------




--------------------------------------- Iteration      1(  11)  ---------------------------------------


    POTLOK:  cpu time      0.0213: real time      0.0204
    SETDIJ:  cpu time      0.0599: real time      0.0301
    EDDIAG:  cpu time      0.0739: real time      0.0735
  RMM-DIIS:  cpu time      0.2204: real time      0.2194
    ORTHCH:  cpu time      0.0224: real time      0.0224
       DOS:  cpu time      0.0002: real time      0.0002
    CHARGE:  cpu time      0.0373: real time      0.0350
    MIXING:  cpu time      0.0165: real time      0.0102
    --------------------------------------------
      LOOP:  cpu time      0.4518: real time      0.4111

 eigenvalue-minimisations  :   342
 total energy-change (2. order) :-0.1756756E-02  (-0.4444942E-02)
 number of electron     255.9999942 magnetization 
 augmentation part       15.9678807 magnetization 

 Broyden mixing:
  rms(total) = 0.30242E-01    rms(broyden)= 0.30224E-01
  rms(prec ) = 0.37393E-01
  weight for this iteration     100.00

 eigenvalues of (default mixing * dielectric matrix)
  average eigenvalue GAMMA=   1.6525
  2.5558  2.5558  1.6411  0.9186  1.1217  1.1217

 Free energy of the ion-electron system (eV)
  ---------------------------------------------------
  alpha Z        PSCENC =       401.66401064
  Ewald energy   TEWEN  =     -6160.57525716
  -Hartree energ DENC   =     -6314.99883724
  -exchange      EXHF   =         0.00000000
  -V(xc)+E(xc)   XCENC  =      1018.73820516
  PAW double counting   =     19806.28136349   -19863.90330811
  entropy T*S    EENTRO =        -0.00000000
  eigenvalues    EBANDS =     -2060.70555810
  atomic energy  EATOM  =     12677.61814180
  Solvation  Ediel_sol  =         0.00000000
  ---------------------------------------------------
  free energy    TOTEN  =      -495.88123951 eV

  energy without entropy =     -495.88123951  energy(sigma->0) =     -495.88123951


--------------------------------------------------------------------------------------------------------




--------------------------------------- Iteration      1(  12)  ---------------------------------------


    POTLOK:  cpu time      0.0199: real time      0.0190
    SETDIJ:  cpu time      0.0561: real time      0.0281
    EDDIAG:  cpu time      0.0713: real time      0.0707
  RMM-DIIS:  cpu time      0.2202: real time      0.2193
    ORTHCH:  cpu time      0.0227: real time      0.0227
       DOS:  cpu time      0.0001: real time      0.0001
    CHARGE:  cpu time      0.0375: real time      0.0354
    MIXING:  cpu time      0.0191: real time      0.0124
    --------------------------------------------
      LOOP:  cpu time      0.4469: real time      0.4077

 eigenvalue-minimisations  :   345
 total energy-change (2. order) : 0.1963187E-02  (-0.7960770E-03)
 number of electron     255.9999943 magnetization 
 augmentation part       15.9573363 magnetization 

 Broyden mixing:
  rms(total) = 0.84444E-02    rms(broyden)= 0.84420E-02
  rms(prec ) = 0.10777E-01
  weight for this iteration     100.00

 eigenvalues of (default mixing * dielectric matrix)
  average eigenvalue GAMMA=   1.6413
  2.6377  2.6377  1.6850  1.2283  1.2283  0.8936  1.1787

 Free energy of the ion-electron system (eV)
  ---------------------------------------------------
  alpha Z        PSCENC =       401.66401064
  Ewald energy   TEWEN  =     -6160.57525716
  -Hartree energ DENC   =     -6318.21161015
  -exchange      EXHF   =         0.00000000
  -V(xc)+E(xc)   XCENC  =      1018.90827699
  PAW double counting   =     19784.11146895   -19841.79341947
  entropy T*S    EENTRO =        -0.00000000
  eigenvalues    EBANDS =     -2057.60088792
  atomic energy  EATOM  =     12677.61814180
  Solvation  Ediel_sol  =         0.00000000
  ---------------------------------------------------
  free energy    TOTEN  =      -495.87927632 eV

  energy without entropy =     -495.87927632  energy(sigma->0) =     -495.87927632


--------------------------------------------------------------------------------------------------------




--------------------------------------- Iteration      1(  13)  ---------------------------------------


    POTLOK:  cpu time      0.0197: real time      0.0194
    SETDIJ:  cpu time      0.0564: real time      0.0283
    EDDIAG:  cpu time      0.0761: real time      0.2055
  RMM-DIIS:  cpu time      0.2143: real time      0.2132
    ORTHCH:  cpu time      0.0226: real time      0.0224
       DOS:  cpu time      0.0001: real time      0.0001
    CHARGE:  cpu time      0.0358: real time      0.0336
    MIXING:  cpu time      0.0246: real time      0.8406
    --------------------------------------------
      LOOP:  cpu time      0.4495: real time      1.3630

 eigenvalue-minimisations  :   344
 total energy-change (2. order) :-0.2862250E-03  (-0.5071073E-03)
 number of electron     255.9999943 magnetization 
 augmentation part       15.9461415 magnetization 

 Broyden mixing:
  rms(total) = 0.75068E-02    rms(broyden)= 0.74955E-02
  rms(prec ) = 0.93273E-02
  weight for this iteration     100.00

 eigenvalues of (default mixing * dielectric matrix)
  average eigenvalue GAMMA=   1.6681
  2.9305  2.6824  1.9111  1.7967  1.0756  1.0756  0.9363  0.9363

 Free energy of the ion-electron system (eV)
  ---------------------------------------------------
  alpha Z        PSCENC =       401.66401064
  Ewald energy   TEWEN  =     -6160.57525716
  -Hartree energ DENC   =     -6319.73088301
  -exchange      EXHF   =         0.00000000
  -V(xc)+E(xc)   XCENC  =      1019.00290324
  PAW double counting   =     19783.07939935   -19840.78937479
  entropy T*S    EENTRO =        -0.00000000
  eigenvalues    EBANDS =     -2056.14850261
  atomic energy  EATOM  =     12677.61814180
  Solvation  Ediel_sol  =         0.00000000
  ---------------------------------------------------
  free energy    TOTEN  =      -495.87956255 eV

  energy without entropy =     -495.87956255  energy(sigma->0) =     -495.87956255


--------------------------------------------------------------------------------------------------------




--------------------------------------- Iteration      1(  14)  ---------------------------------------


    POTLOK:  cpu time      0.0194: real time      0.0186
    SETDIJ:  cpu time      0.0541: real time      0.0271
    EDDIAG:  cpu time      0.0696: real time      0.0689
  RMM-DIIS:  cpu time      0.1930: real time      0.1923
    ORTHCH:  cpu time      0.0222: real time      0.0222
       DOS:  cpu time      0.0001: real time      0.0001
    CHARGE:  cpu time      0.0335: real time      0.0315
    MIXING:  cpu time      0.0159: real time      0.0101
    --------------------------------------------
      LOOP:  cpu time      0.4078: real time      0.3708

 eigenvalue-minimisations  :   321
 total energy-change (2. order) : 0.1102315E-03  (-0.7088897E-04)
 number of electron     255.9999943 magnetization 
 augmentation part       15.9484753 magnetization 

 Broyden mixing:
  rms(total) = 0.15815E-02    rms(broyden)= 0.15807E-02
  rms(prec ) = 0.20357E-02
  weight for this iteration     100.00

 eigenvalues of (default mixing * dielectric matrix)
  average eigenvalue GAMMA=   1.6551
  3.0817  2.4888  2.1046  1.5727  1.5727  1.0959  1.0959  0.9420  0.9420

 Free energy of the ion-electron system (eV)
  ---------------------------------------------------
  alpha Z        PSCENC =       401.66401064
  Ewald energy   TEWEN  =     -6160.57525716
  -Hartree energ DENC   =     -6318.97154847
  -exchange      EXHF   =         0.00000000
  -V(xc)+E(xc)   XCENC  =      1018.95803538
  PAW double counting   =     19778.29488282   -19835.98452275
  entropy T*S    EENTRO =        -0.00000000
  eigenvalues    EBANDS =     -2056.88319458
  atomic energy  EATOM  =     12677.61814180
  Solvation  Ediel_sol  =         0.00000000
  ---------------------------------------------------
  free energy    TOTEN  =      -495.87945231 eV

  energy without entropy =     -495.87945231  energy(sigma->0) =     -495.87945231


--------------------------------------------------------------------------------------------------------




--------------------------------------- Iteration      1(  15)  ---------------------------------------


    POTLOK:  cpu time      0.0190: real time      0.0183
    SETDIJ:  cpu time      0.0528: real time      0.0264
    EDDIAG:  cpu time      0.0696: real time      0.0689
  RMM-DIIS:  cpu time      0.1451: real time      0.1445
    ORTHCH:  cpu time      0.0222: real time      0.0222
       DOS:  cpu time      0.0001: real time      0.0001
    --------------------------------------------
      LOOP:  cpu time      0.3088: real time      0.2805

 eigenvalue-minimisations  :   227
 total energy-change (2. order) :-0.1669788E-04  (-0.2049182E-04)
 number of electron     255.9999943 magnetization 
 augmentation part       15.9484753 magnetization 

 Free energy of the ion-electron system (eV)
  ---------------------------------------------------
  alpha Z        PSCENC =       401.66401064
  Ewald energy   TEWEN  =     -6160.57525716
  -Hartree energ DENC   =     -6318.91373812
  -exchange      EXHF   =         0.00000000
  -V(xc)+E(xc)   XCENC  =      1018.95584073
  PAW double counting   =     19778.39618801   -19836.08241279
  entropy T*S    EENTRO =        -0.00000000
  eigenvalues    EBANDS =     -2056.94224213
  atomic energy  EATOM  =     12677.61814180
  Solvation  Ediel_sol  =         0.00000000
  ---------------------------------------------------
  free energy    TOTEN  =      -495.87946901 eV

  energy without entropy =     -495.87946901  energy(sigma->0) =     -495.87946901


--------------------------------------------------------------------------------------------------------




 average (electrostatic) potential at core
  the test charge radii are     0.6991  0.5201  0.7215
  (the norm of the test charge is              1.0000)
       1 -55.6146       2 -54.3143       3 -54.2199       4 -54.4461       5 -54.5582
       6 -54.4113       7 -55.5712       8 -54.4007       9 -54.5805      10 -54.6060
      11 -54.3874      12 -54.0075      13 -55.8187      14 -54.7433      15 -54.6316
      16 -54.6513      17 -54.5294      18 -54.0904      19 -55.6872      20 -54.1177
      21 -54.2067      22 -54.5023      23 -54.5759      24 -53.8805      25 -36.8763
      26 -36.3027      27 -36.1721      28 -36.5811      29 -36.6783      30 -36.6788
      31 -36.5929      32 -36.3438      33 -36.6113      34 -36.7500      35 -36.3854
      36 -36.2284      37 -36.3618      38 -36.9797      39 -36.9012      40 -36.8516
      41 -36.8561      42 -36.5048      43 -36.2935      44 -36.3843      45 -36.8920
      46 -36.0787      47 -36.2874      48 -36.5980      49 -36.6607      50 -36.0865
      51 -36.0368      52 -38.4693      53 -38.2825      54 -39.1232      55 -38.7422
      56 -39.0428      57 -38.2456      58 -38.5666      59 -38.6499      60 -38.3041
      61 -37.8726      62 -38.3456      63 -38.2771      64 -36.7018      65 -75.1261
      66 -74.7109      67 -75.6311      68 -75.2857      69 -75.5697      70 -75.6317
      71 -75.1370      72 -75.3922      73 -75.5308      74 -74.8031      75 -75.4258
      76 -75.2394      77 -75.7795      78 -75.7775      79 -74.8397      80 -75.7360
      81 -74.4335      82 -74.6087      83 -75.7908      84 -74.5925
 
 
 
 E-fermi :   0.0518     XC(G=0):  -8.6289     alpha+bet : -7.4577

 val. band max:       -0.1784602467   @ k =   0.0000   0.0000   0.0000
 cond. band min:       5.1911995093   @ k =   0.0000   0.0000   0.0000
 fundamental gap:      5.3696597560
 Fermi energy:         0.0517661592

 k-point     1 :       0.0000    0.0000    0.0000
  band No.  band energies     occupation 
      1     -22.0511      2.00000
      2     -21.8725      2.00000
      3     -21.8186      2.00000
      4     -21.6259      2.00000
      5     -20.7304      2.00000
      6     -20.6833      2.00000
      7     -20.6452      2.00000
      8     -20.4885      2.00000
      9     -20.3808      2.00000
     10     -20.2647      2.00000
     11     -20.2229      2.00000
     12     -20.1243      2.00000
     13     -20.0451      2.00000
     14     -19.9642      2.00000
     15     -19.9347      2.00000
     16     -19.8227      2.00000
     17     -19.7804      2.00000
     18     -19.6363      2.00000
     19     -19.6100      2.00000
     20     -19.3792      2.00000
     21     -14.7604      2.00000
     22     -14.6502      2.00000
     23     -14.4063      2.00000
     24     -14.3826      2.00000
     25     -13.6891      2.00000
     26     -13.6679      2.00000
     27     -13.3113      2.00000
     28     -13.2754      2.00000
     29     -11.9504      2.00000
     30     -11.9075      2.00000
     31     -11.4945      2.00000
     32     -11.2241      2.00000
     33     -11.0618      2.00000
     34     -10.8807      2.00000
     35     -10.0917      2.00000
     36      -9.9287      2.00000
     37      -9.8822      2.00000
     38      -9.8347      2.00000
     39      -9.6821      2.00000
     40      -9.5771      2.00000
     41      -9.4877      2.00000
     42      -9.2130      2.00000
     43      -8.9048      2.00000
     44      -8.7156      2.00000
     45      -8.2788      2.00000
     46      -8.1715      2.00000
     47      -8.1482      2.00000
     48      -7.9984      2.00000
     49      -7.8953      2.00000
     50      -7.8322      2.00000
     51      -7.6531      2.00000
     52      -7.5156      2.00000
     53      -7.3971      2.00000
     54      -7.3649      2.00000
     55      -7.2288      2.00000
     56      -7.1932      2.00000
     57      -7.0916      2.00000
     58      -7.0463      2.00000
     59      -6.8830      2.00000
     60      -6.8136      2.00000
     61      -6.7258      2.00000
     62      -6.5571      2.00000
     63      -6.4548      2.00000
     64      -6.4205      2.00000
     65      -6.2762      2.00000
     66      -6.2345      2.00000
     67      -6.0522      2.00000
     68      -5.9228      2.00000
     69      -5.7186      2.00000
     70      -5.5638      2.00000
     71      -5.3988      2.00000
     72      -5.3318      2.00000
     73      -5.1927      2.00000
     74      -5.1242      2.00000
     75      -5.0067      2.00000
     76      -4.9183      2.00000
     77      -4.8513      2.00000
     78      -4.7896      2.00000
     79      -4.7239      2.00000
     80      -4.6809      2.00000
     81      -4.4869      2.00000
     82      -4.4563      2.00000
     83      -4.3397      2.00000
     84      -4.2293      2.00000
[...]
   -.235E+01 0.374E+02 -.553E+02   0.585E+01 -.340E+02 0.585E+02   -.346E+01 -.333E+01 -.313E+01   0.286E-03 0.901E-04 -.232E-03
   -.185E+02 0.508E+01 0.768E+02   0.236E+02 -.630E+01 -.811E+02   -.509E+01 0.128E+01 0.414E+01   -.280E-03 -.671E-03 -.393E-04
   0.336E+01 -.470E+02 -.617E+02   -.878E+01 0.502E+02 0.658E+02   0.543E+01 -.327E+01 -.405E+01   -.236E-03 -.757E-05 -.371E-03
   -.848E+02 -.602E+02 0.681E+02   0.900E+02 0.584E+02 -.705E+02   -.514E+01 0.186E+01 0.234E+01   0.156E-03 0.336E-03 0.204E-03
   0.409E+02 -.289E+02 0.905E+02   -.456E+02 0.349E+02 -.951E+02   0.470E+01 -.589E+01 0.448E+01   -.266E-03 -.654E-04 0.145E-03
   0.310E+02 -.133E+02 -.620E+02   -.328E+02 0.924E+01 0.651E+02   0.172E+01 0.409E+01 -.302E+01   0.749E-03 -.224E-03 0.926E-04
   -.118E+01 -.301E+02 0.780E+02   0.413E+01 0.274E+02 -.815E+02   -.296E+01 0.276E+01 0.355E+01   0.104E-02 -.346E-03 0.137E-03
   -.266E+02 0.116E+02 -.623E+02   0.324E+02 -.103E+02 0.660E+02   -.573E+01 -.137E+01 -.367E+01   0.577E-03 -.172E-03 -.323E-03
   0.247E+02 0.494E+02 0.861E+02   -.310E+02 -.520E+02 -.889E+02   0.624E+01 0.260E+01 0.274E+01   0.873E-03 0.431E-03 -.339E-03
   -.802E+02 0.806E+02 -.348E+02   0.855E+02 -.804E+02 0.376E+02   -.534E+01 -.144E+00 -.285E+01   0.414E-03 0.945E-03 -.788E-04
   -.157E+02 -.156E+02 -.707E+02   0.168E+02 0.163E+02 0.761E+02   -.110E+01 -.755E+00 -.545E+01   -.152E-03 0.184E-03 -.875E-04
   0.136E+02 0.110E+02 0.506E+02   -.145E+02 -.117E+02 -.563E+02   0.916E+00 0.676E+00 0.571E+01   -.119E-03 0.259E-03 -.122E-04
   -.313E+01 -.545E+01 -.647E+02   0.396E+01 0.587E+01 0.702E+02   -.826E+00 -.422E+00 -.554E+01   0.680E-04 0.111E-03 -.234E-04
   0.142E+02 -.662E+01 0.673E+02   -.152E+02 0.634E+01 -.728E+02   0.101E+01 0.276E+00 0.556E+01   0.180E-03 0.522E-04 0.157E-03
   -.181E+02 -.486E+01 -.628E+02   0.194E+02 0.479E+01 0.681E+02   -.128E+01 0.637E-01 -.541E+01   0.540E-04 -.879E-04 -.961E-04
   0.269E+02 -.702E+01 0.486E+02   -.300E+02 0.748E+01 -.534E+02   0.315E+01 -.455E+00 0.479E+01   0.371E-04 -.167E-03 -.833E-04
   -.456E+02 -.249E+02 0.104E+02   0.507E+02 0.273E+02 -.114E+02   -.506E+01 -.242E+01 0.958E+00   -.610E-04 -.304E-03 -.183E-04
   0.890E+01 -.145E+02 -.569E+02   -.972E+01 0.146E+02 0.625E+02   0.827E+00 -.165E+00 -.568E+01   -.638E-04 -.101E-03 -.181E-03
   -.139E+02 0.882E+01 0.623E+02   0.149E+02 -.978E+01 -.676E+02   -.986E+00 0.992E+00 0.536E+01   -.157E-03 0.134E-03 0.147E-03
   0.482E+01 -.118E+02 -.724E+02   -.537E+01 0.126E+02 0.779E+02   0.560E+00 -.813E+00 -.559E+01   0.388E-04 0.140E-03 -.667E-04
   -.917E+01 0.165E+02 0.534E+02   0.985E+01 -.174E+02 -.590E+02   -.682E+00 0.949E+00 0.561E+01   -.732E-04 0.134E-03 -.382E-04
   0.365E+01 -.413E+01 -.448E+02   -.519E+01 0.490E+01 0.503E+02   0.155E+01 -.770E+00 -.550E+01   -.132E-03 0.897E-04 -.145E-04
   -.485E+02 0.412E+02 -.485E+01   0.533E+02 -.444E+02 0.505E+01   -.474E+01 0.319E+01 -.185E+00   -.171E-03 0.138E-03 0.140E-03
   -.138E+02 0.359E+01 -.670E+02   0.146E+02 -.364E+01 0.727E+02   -.871E+00 0.530E-01 -.570E+01   -.187E-03 -.371E-04 -.549E-05
   -.188E+01 0.132E+02 0.755E+02   0.210E+01 -.137E+02 -.811E+02   -.218E+00 0.498E+00 0.568E+01   -.787E-04 -.299E-04 0.779E-04
   0.641E+01 0.158E+02 -.645E+02   -.680E+01 -.166E+02 0.701E+02   0.387E+00 0.803E+00 -.557E+01   -.412E-04 -.601E-04 -.202E-03
   0.553E+01 -.600E+01 0.622E+02   -.638E+01 0.697E+01 -.678E+02   0.851E+00 -.968E+00 0.558E+01   -.545E-04 -.119E-03 0.122E-03
   -.786E+01 0.114E+01 -.534E+02   0.829E+01 -.110E+01 0.592E+02   -.439E+00 -.688E-01 -.582E+01   -.137E-04 -.162E-03 0.711E-05
   -.104E+02 -.969E+01 0.486E+02   0.104E+02 0.927E+01 -.542E+02   -.564E-01 0.413E+00 0.559E+01   0.500E-04 0.491E-04 0.219E-03
   -.512E+02 -.298E+02 -.237E+01   0.559E+02 0.326E+02 0.390E+01   -.474E+01 -.284E+01 -.154E+01   -.170E-03 -.432E-04 -.176E-04
   0.675E+01 -.105E+02 0.684E+02   -.659E+01 0.114E+02 -.740E+02   -.174E+00 -.872E+00 0.560E+01   -.975E-04 -.564E-04 0.191E-03
   0.669E+01 0.896E+01 -.593E+02   -.658E+01 -.980E+01 0.649E+02   -.111E+00 0.851E+00 -.557E+01   0.932E-04 0.133E-03 -.164E-03
   0.343E+01 -.185E+02 0.658E+02   -.358E+01 0.198E+02 -.712E+02   0.161E+00 -.130E+01 0.541E+01   0.169E-03 -.518E-05 0.631E-05
   -.372E+00 0.112E+02 -.696E+02   0.114E+00 -.124E+02 0.752E+02   0.268E+00 0.115E+01 -.560E+01   0.136E-03 0.297E-04 -.332E-04
   0.107E+01 -.616E+01 0.670E+02   -.106E+01 0.696E+01 -.725E+02   -.277E-01 -.800E+00 0.547E+01   0.318E-04 0.394E-04 0.968E-04
   -.106E+02 0.175E+02 -.427E+02   0.106E+02 -.181E+02 0.482E+02   -.324E-01 0.638E+00 -.561E+01   0.724E-04 0.824E-04 0.126E-03
   -.423E+02 0.390E+02 0.148E+02   0.466E+02 -.425E+02 -.169E+02   -.422E+01 0.344E+01 0.211E+01   0.171E-03 0.169E-03 -.104E-03
   0.457E+02 0.528E+02 -.636E-02   -.511E+02 -.582E+02 0.668E-01   0.548E+01 0.537E+01 -.703E-01   0.410E-04 -.125E-03 0.163E-04
   0.660E+02 0.720E+01 -.227E+02   -.730E+02 -.452E+01 0.247E+02   0.702E+01 -.271E+01 -.197E+01   0.296E-04 0.672E-04 -.104E-04
   -.135E+02 0.222E+02 -.620E+02   0.157E+02 -.250E+02 0.689E+02   -.220E+01 0.287E+01 -.701E+01   0.139E-03 -.173E-03 0.212E-03
   -.598E+02 -.370E+02 -.302E+02   0.669E+02 0.385E+02 0.336E+02   -.719E+01 -.155E+01 -.332E+01   0.130E-03 -.146E-03 0.196E-03
   -.256E+02 -.754E+02 -.382E+02   0.286E+02 0.825E+02 0.412E+02   -.306E+01 -.710E+01 -.294E+01   -.903E-04 -.203E-03 0.115E-04
   0.575E+02 0.253E+00 -.146E+02   -.646E+02 0.236E+01 0.163E+02   0.715E+01 -.264E+01 -.165E+01   -.202E-03 0.393E-04 0.120E-03
   -.306E+01 -.546E+00 -.616E+02   0.390E+01 0.779E+00 0.689E+02   -.833E+00 -.235E+00 -.730E+01   -.642E-04 -.884E-04 0.176E-04
   0.633E+02 0.242E+02 -.231E+02   -.701E+02 -.230E+02 0.260E+02   0.687E+01 -.126E+01 -.296E+01   -.932E-04 0.599E-04 -.583E-05
   -.332E+01 -.673E+02 -.834E+01   0.544E+01 0.748E+02 0.995E+01   -.213E+01 -.753E+01 -.163E+01   0.144E-04 0.178E-03 0.916E-05
   -.540E+02 -.293E+02 0.636E+00   0.618E+02 0.299E+02 -.411E+00   -.778E+01 -.542E+00 -.225E+00   -.669E-04 0.430E-04 0.408E-04
   0.563E+02 -.280E+02 0.272E+02   -.636E+02 0.280E+02 -.303E+02   0.733E+01 0.959E-01 0.309E+01   -.157E-03 -.162E-04 -.582E-04
   0.550E+02 -.130E+02 -.164E+02   -.615E+02 0.167E+02 0.195E+02   0.649E+01 -.373E+01 -.309E+01   -.219E-03 0.105E-05 0.209E-04
   -.860E+01 0.278E+01 0.701E+02   0.917E+01 -.356E+01 -.759E+02   -.566E+00 0.780E+00 0.571E+01   0.118E-03 0.161E-04 0.120E-04
   -.699E+02 0.152E+03 -.620E+02   0.106E+03 -.157E+03 0.766E+02   -.357E+02 0.562E+01 -.147E+02   0.860E-03 -.288E-03 -.119E-03
   0.126E+03 0.204E+03 0.121E+02   -.120E+03 -.243E+03 -.280E+02   -.628E+01 0.395E+02 0.159E+02   -.593E-04 0.828E-03 -.233E-03
   -.270E+02 -.882E+02 -.171E+03   0.335E+02 0.109E+03 0.207E+03   -.650E+01 -.205E+02 -.366E+02   0.198E-02 0.143E-03 -.464E-03
   -.472E+02 -.162E+03 0.115E+03   0.653E+02 0.183E+03 -.150E+03   -.181E+02 -.206E+02 0.342E+02   -.752E-03 0.196E-03 0.574E-03
   0.987E+02 -.944E+02 -.356E+02   -.128E+03 0.123E+03 0.289E+02   0.296E+02 -.288E+02 0.678E+01   0.354E-03 -.128E-02 0.121E-02
   -.316E+02 0.675E+02 0.110E+03   0.320E+02 -.888E+02 -.146E+03   -.391E+00 0.213E+02 0.360E+02   -.448E-03 0.887E-03 0.818E-03
   -.318E+02 -.215E+03 0.386E+02   0.127E+02 0.241E+03 -.674E+02   0.191E+02 -.258E+02 0.288E+02   -.282E-03 -.164E-02 0.922E-03
   0.947E+02 -.147E+03 -.558E+02   -.135E+03 0.142E+03 0.476E+02   0.407E+02 0.513E+01 0.811E+01   0.355E-04 -.175E-02 -.395E-03
   -.585E+02 0.144E+03 -.144E+03   0.756E+02 -.163E+03 0.173E+03   -.171E+02 0.191E+02 -.293E+02   -.535E-03 0.112E-03 0.180E-03
   0.199E+02 0.164E+03 0.356E+02   -.131E+02 -.195E+03 -.613E+02   -.684E+01 0.317E+02 0.257E+02   -.183E-02 0.337E-03 0.971E-03
   -.268E+02 0.156E+03 0.334E+02   0.321E+02 -.190E+03 -.535E+02   -.531E+01 0.339E+02 0.202E+02   -.108E-02 0.302E-03 -.117E-03
   0.838E+02 0.191E+03 0.938E+02   -.759E+02 -.220E+03 -.123E+03   -.790E+01 0.289E+02 0.290E+02   -.106E-02 0.838E-04 0.501E-03
   -.160E+02 -.341E+02 -.149E+03   0.226E+02 0.490E+02 0.187E+03   -.662E+01 -.148E+02 -.385E+02   -.661E-03 -.881E-03 -.114E-02
   -.876E+02 -.126E+03 0.114E+03   0.107E+03 0.147E+03 -.140E+03   -.195E+02 -.207E+02 0.263E+02   -.266E-03 -.182E-03 -.347E-03
   0.116E+03 -.103E+03 0.167E+02   -.154E+03 0.888E+02 -.118E+02   0.380E+02 0.140E+02 -.488E+01   0.755E-03 0.102E-02 -.147E-03
   -.245E+02 0.663E+02 0.189E+03   0.253E+02 -.827E+02 -.227E+03   -.773E+00 0.164E+02 0.383E+02   -.444E-03 -.286E-03 -.449E-04
   0.345E+02 -.243E+03 0.490E+02   -.590E+02 0.278E+03 -.596E+02   0.246E+02 -.346E+02 0.106E+02   0.359E-03 -.118E-02 0.456E-03
   0.337E+02 -.171E+03 -.811E+02   -.209E+02 0.197E+03 0.114E+03   -.128E+02 -.260E+02 -.328E+02   -.531E-03 0.564E-04 0.631E-04
   -.365E+02 0.175E+03 -.825E+02   0.553E+02 -.199E+03 0.104E+03   -.188E+02 0.237E+02 -.220E+02   0.462E-03 0.177E-03 -.121E-02
   0.598E+02 0.139E+03 0.824E+02   -.625E+02 -.171E+03 -.113E+03   0.260E+01 0.320E+02 0.304E+02   -.959E-03 0.136E-03 -.575E-03
 -----------------------------------------------------------------------------------------------
   0.151E+02 -.620E+02 -.101E+03   0.732E-12 -.284E-12 0.199E-12   -.151E+02 0.620E+02 0.101E+03   -.430E-02 0.950E-03 0.140E-02
 
 
 POSITION                                       TOTAL-FORCE (eV/Angst)
 -----------------------------------------------------------------------------------
     -0.55900      7.65454      7.88984        -0.015022      0.011562      0.040758
      8.74985      5.94199      7.29755        -0.035963      0.021353      0.015051
      7.68981      6.97303      0.32722         0.021867      0.008022      0.034153
      7.55361     -0.69906      7.10821         0.012098      0.015264     -0.061022
      8.71450      0.26009      7.34452         0.010871      0.001738      0.045004
      8.44693      1.70524      6.95230        -0.049396     -0.014113     -0.015951
      5.17798     -0.39714      7.19565        -0.014341     -0.048216      0.001987
      4.25224      0.78378      7.49914        -0.020047     -0.026626      0.046842
      2.93143      0.48758      6.80372         0.050939     -0.000991     -0.066398
      1.85233      7.66437      7.79571         0.039852      0.020364     -0.004894
      2.83535      6.50380      7.56072         0.025005      0.018999     -0.058984
      2.69838      5.77386      0.56835        -0.052510      0.038185      0.072638
      2.03713      3.93964      4.07819        -0.003878      0.031670      0.010812
      0.96556      2.92585      3.67271         0.026413     -0.000919     -0.055614
      9.94980      2.72820      3.68890         0.033756      0.011357      0.007071
      9.65595      4.20484      3.43518         0.034917      0.056058     -0.079169
      0.42411      5.73585      4.30572         0.010702     -0.039526      0.027805
      0.33191      7.16267      3.77516         0.046471      0.032166      0.010633
      7.24498      4.45205      3.60981        -0.006805      0.068070     -0.041846
      6.35092      5.49663      4.26556        -0.025906     -0.017218      0.090682
      4.92134      5.32041      3.78360        -0.005783      0.002477      0.002693
      4.47077      3.86420      3.98454         0.001253     -0.013337      0.022913
      5.44235      2.87109      3.33495         0.001108      0.012114     -0.074093
      5.14024      1.39283      3.63063         0.003774      0.055313     -0.006192
      0.40467     -0.05860      0.93612        -0.011971     -0.002068     -0.022785
      8.56857      5.82199      6.21905        -0.007588      0.013889     -0.016713
      7.87001      7.06435      1.41738         0.005572     -0.006525     -0.003685
      7.33854     -0.74497      6.02158         0.011179     -0.003429      0.056844
      9.21243      0.84153      0.76080        -0.002882     -0.010310     -0.028417
      7.83875      1.78420      6.03858         0.016940      0.001267      0.023426
      9.42357      2.18111      6.77084         0.020653     -0.003139     -0.006806
      4.33091      1.42263      0.93033         0.005336     -0.016593     -0.056569
      3.13040      0.28579      5.72907        -0.008150      0.023178      0.051481
      2.45793     -0.04264      0.85104         0.011028      0.002616     -0.022780
      2.95463      6.33708      6.47519        -0.002390      0.006174      0.003927
      2.39270      5.94307      1.61118         0.005167      0.003576     -0.030615
      3.61179      5.16266      0.58940         0.015697     -0.007361      0.010604
      2.21337      3.91951      5.17264        -0.012886      0.000810     -0.016235
      1.00272      2.82707      2.57329         0.001606      0.001894      0.047044
      9.88103      2.57161      4.77999         0.001233      0.006224     -0.019218
      9.47259      4.37818      2.36107        -0.001970      0.004710      0.018027
      0.51171      5.72330      5.40324        -0.003289     -0.022669     -0.001311
      0.34218      7.08610      2.67506         0.003671     -0.007441      0.002092
      1.24134      7.70011      4.08332        -0.021527     -0.017320     -0.010685
      7.29166      4.60197      2.50943        -0.013116      0.002709      0.043770
      6.37807      5.31851      5.36080         0.000891      0.016172     -0.041503
      4.88756      5.55721      2.70205         0.006260      0.003212      0.009095
      4.40115      3.64362      5.06472         0.008082     -0.000445     -0.003556
      5.45964      3.04500      2.23908        -0.014829      0.003471      0.032834
      5.13728      1.27074      4.72733         0.008732      0.004900     -0.023621
      5.94683      0.76981      3.22128         0.015497     -0.003113     -0.021485
      8.76724      4.63381      0.18334         0.013227     -0.000975     -0.007116
      5.82319      6.34913      0.34030         0.029769     -0.022562     -0.009050
      8.26944      2.64308      1.18904        -0.000613      0.025376     -0.047504
      5.64931      2.17812      7.42549        -0.029309     -0.007858      0.002474
      2.38593      2.38408      7.21981        -0.004390     -0.001978      0.001074
      0.58338      4.77363      7.75510         0.057891     -0.024564     -0.020568
      1.41230      1.71472      5.20686         0.006186     -0.002339     -0.025238
      8.10650      2.09010      3.41790         0.050704      0.000483     -0.042828
     -0.03317      0.32505      4.04466        -0.012660     -0.042759     -0.008485
      7.79054      6.83412      3.98052        -0.018365      0.006455      0.000810
      3.20188      6.18971      4.11153         0.024362     -0.003589      0.004688
      3.16922      1.38574      3.44330         0.010791     -0.029805      0.007109
      5.29361     -0.54003      6.10383         0.004779     -0.003662     -0.019984
      9.49127      5.31564      0.18775         0.047742     -0.065113     -0.039527
      6.70211      5.97402      0.08003        -0.049846     -0.049858      0.028857
      6.64229      0.41620      0.14122        -0.010148      0.008552      0.010886
      9.82294     -0.20387      6.57353         0.028457      0.060598     -0.020049
      7.97135      3.01661      0.32234         0.052020     -0.050361      0.050528
      0.59935      7.28753      7.20194        -0.029576     -0.024458      0.010722
      4.77621      2.01778      6.99925         0.049674      0.064013      0.046991
      1.98482      1.56190      6.87269        -0.036872      0.022096     -0.005250
      4.35109      7.45121      0.46228        -0.009264     -0.022805     -0.015210
      1.48153      4.41897      7.52811        -0.065392     -0.026849     -0.010725
      1.30249      1.64278      4.21098        -0.005074     -0.039863      0.054565
      8.99606      1.89720      3.01323        -0.083920     -0.035157      0.019984
      8.49832      4.57938      4.19971        -0.001231      0.007128      0.034021
      1.64241      5.26319      3.69146         0.030628      0.016877      0.011491
      9.55058      7.23151      3.79906        -0.049898      0.068569      0.002065
      3.19034      3.61969      3.36176        -0.020405      0.004710      0.028494
      6.80002      6.80511      3.93841         0.034268      0.066349      0.002158
      4.10058      6.22718      4.51279        -0.053603     -0.008623     -0.004704
      6.75501      3.11283      3.88433        -0.016830     -0.044803     -0.030120
      3.93308      0.91398      3.04498        -0.073517     -0.067469      0.046846
 -----------------------------------------------------------------------------------
    total drift:                               -0.004095      0.013909     -0.004556


--------------------------------------------------------------------------------------------------------



  FREE ENERGIE OF THE ION-ELECTRON SYSTEM (eV)
  ---------------------------------------------------
  free  energy   TOTEN  =      -501.22878057 eV

  energy  without entropy=     -501.22878057  energy(sigma->0) =     -501.22878057
 d Force = 0.2119006E-03[ 0.173E-03, 0.250E-03]  d Energy = 0.2103190E-03 0.158E-05
 d Force = 0.6465307E+00[ 0.646E+00, 0.647E+00]  d Ewald  = 0.6465306E+00 0.852E-07
 


--------------------------------------------------------------------------------------------------------


    POTLOK:  cpu time      0.0830: real time      0.0546


--------------------------------------------------------------------------------------------------------


           RANDOM_SEED =         787403935                0                0
   IONSTEP:  cpu time      0.0001: real time      0.0001

  ENERGY OF THE ELECTRON-ION-THERMOSTAT SYSTEM (eV)
  ---------------------------------------------------
% ion-electron   TOTEN  =      -501.228781  see above
  kinetic energy EKIN   =         0.002750
  kin. lattice  EKIN_LAT=         0.000000  (temperature    0.26 K)
  nose potential ES     =         0.000000
  nose kinetic   EPS    =         0.000000
  ---------------------------------------------------
  total energy   ETOTAL =      -501.226031 eV

  maximum distance moved by ions :      0.93E-04


 mean value of Nose-termostat <S>:     1.000 mean value of <T> :     0.139
 mean temperature <T/S>/<1/S>  :     0.139

 Prediction of Wavefunctions ALPHA= 2.108 BETA=-1.131
    WAVPRE:  cpu time      0.2795: real time      0.2223
    FEWALD:  cpu time      0.1291: real time      0.1292
    ORTHCH:  cpu time      0.0928: real time      0.0929
    POTLOK:  cpu time      0.0810: real time      0.0534
    EDDIAG:  cpu time      0.0943: real time      0.0937
     LOOP+:  cpu time      2.8506: real time      2.5483
    4ORBIT:  cpu time      0.0000: real time      0.0007

 total amount of memory used by VASP MPI-rank0   248886. kBytes
=======================================================================

   base                                    :      30000. kBytes
   nonlr-proj                              :       7358. kBytes
   fftplans                                :      28940. kBytes
   grid                                    :      58268. kBytes
   one-center                              :        258. kBytes
   wavefun                                 :     124062. kBytes
 
  
  
 General timing and accounting informations for this job:
 ========================================================
  
                  Total CPU time used (sec):       36.055
                            User time (sec):       34.680
                          System time (sec):        1.375
                         Elapsed time (sec):       37.232
  
                   Maximum memory used (kb):     1806700.
                   Average memory used (kb):          N/A
  
                          Minor page faults:       674718
                          Major page faults:         1634
                 Voluntary context switches:        20868
