<?xml version="1.0" encoding="ISO-8859-1"?>
<modeling>
 <generator>
  <i name="program" type="string">vasp </i>
  <i name="version" type="string">6.5.1  </i>
  <i name="subversion" type="string">10Mar25 (build Aug 25 2025 18:33:19) complex                          parallel </i>
  <i name="platform" type="string">LinuxNV </i>
  <i name="date" type="string">2025 11 28 </i>
  <i name="time" type="string">17:07:23 </i>
 </generator>
 <incar>
  <i type="int" name="ISTART">     0</i>
  <i type="string" name="PREC">Normal</i>
  <i type="string" name="ALGO">Fast</i>
  <i type="int" name="IBRION">     0</i>
  <i type="int" name="NSW">    10</i>
  <i type="int" name="ISIF">     2</i>
  <i type="int" name="ISYM">     0</i>
  <i name="ENCUT">    450.00000000</i>
  <i name="POTIM">      0.50000000</i>
  <i name="TEBEG">    300.00000000</i>
  <i name="TEEND">    300.00000000</i>
  <i type="string" name="LREAL">Auto</i>
  <i type="int" name="ISMEAR">     0</i>
  <i name="SIGMA">      0.05000000</i>
  <i type="logical" name="LWAVE"> F  </i>
  <i type="logical" name="LCHARG"> F  </i>
  <i type="string" name="GGA">PE</i>
  <i type="int" name="IVDW">    12</i>
  <i type="int" name="MDALGO">     4</i>
 </incar>
 <primitive_cell>
  <structure name="primitive_cell" >
   <crystal>
    <varray name="basis" >
     <v>      10.37457494      -0.62795935      -0.41877549 </v>
     <v>      -0.50314792       8.45796955       0.36598113 </v>
     <v>      -0.23498639      -0.59520086       7.66420649 </v>
    </varray>
    <i name="volume">    671.45219127 </i>
    <varray name="rec_basis" >
     <v>       0.09686685       0.00561504       0.00340602 </v>
     <v>       0.00753898       0.11827272       0.00941618 </v>
     <v>       0.00493284      -0.00534095       0.13021312 </v>
    </varray>
   </crystal>
   <varray name="positions" >
    <v>       0.01572712       0.97540654       0.98371690 </v>
    <v>       0.90584085       0.83744082       0.96167441 </v>
    <v>       0.78511502       0.88574245       0.04327020 </v>
    <v>       0.75193630       0.04116114       0.96655404 </v>
    <v>       0.87062417       0.16560739       0.99793659 </v>
    <v>       0.85149073       0.33082340       0.93782142 </v>
    <v>       0.52388278       0.05989939       0.96466608 </v>
    <v>       0.44186261       0.19541960       0.99332373 </v>
    <v>       0.30981163       0.14382857       0.89774055 </v>
    <v>       0.24896892       0.99383792       0.98333761 </v>
    <v>       0.33688546       0.86175414       0.96382284 </v>
    <v>       0.29574580       0.70857454       0.05642700 </v>
    <v>       0.23334405       0.51966397       0.52006946 </v>
    <v>       0.12244551       0.38788728       0.46734476 </v>
    <v>       0.99162566       0.43239737       0.51485865 </v>
    <v>       0.97059132       0.60238129       0.47254580 </v>
    <v>       0.08795014       0.72219832       0.53207798 </v>
    <v>       0.08521165       0.88516280       0.45498513 </v>
    <v>       0.73910131       0.61508749       0.48199185 </v>
    <v>       0.66063527       0.73819457       0.55738545 </v>
    <v>       0.51948133       0.70199151       0.48852954 </v>
    <v>       0.46834290       0.52826458       0.52022878 </v>
    <v>       0.55464177       0.41202098       0.44579179 </v>
    <v>       0.51806559       0.23761646       0.49071263 </v>
    <v>       0.04213419       0.00487340       0.12393296 </v>
    <v>       0.88392751       0.81130796       0.82091201 </v>
    <v>       0.80672163       0.90832931       0.18556932 </v>
    <v>       0.72733402       0.02410404       0.82475470 </v>
    <v>       0.89955554       0.17641658       0.13972482 </v>
    <v>       0.78996014       0.32686241       0.81568596 </v>
    <v>       0.94818732       0.39311126       0.91658952 </v>
    <v>       0.43078089       0.20991416       0.13439831 </v>
    <v>       0.32431884       0.11114400       0.76050733 </v>
    <v>       0.24062275       0.02134168       0.12301036 </v>
    <v>       0.34390210       0.83266097       0.82406869 </v>
    <v>       0.27068639       0.73594741       0.18955118 </v>
    <v>       0.38091859       0.64320132       0.06684975 </v>
    <v>       0.25419360       0.52899197       0.66335117 </v>
    <v>       0.12172395       0.36627811       0.32531166 </v>
    <v>       0.98791395       0.42366910       0.65727989 </v>
    <v>       0.95035351       0.61134736       0.33099595 </v>
    <v>       0.10018943       0.73208999       0.67543884 </v>
    <v>       0.08197987       0.86604217       0.31218257 </v>
    <v>       0.17711971       0.95850434       0.49664626 </v>
    <v>       0.74089110       0.62275355       0.33858230 </v>
    <v>       0.66581937       0.72735364       0.70059948 </v>
    <v>       0.51375816       0.71942399       0.34631870 </v>
    <v>       0.46387163       0.51183765       0.66164854 </v>
    <v>       0.55386796       0.42220024       0.30260116 </v>
    <v>       0.52081381       0.23347908       0.63397263 </v>
    <v>       0.59142581       0.16596222       0.44492644 </v>
    <v>       0.87587936       0.61602169       0.04247291 </v>
    <v>       0.60112687       0.79822075       0.03908537 </v>
    <v>       0.81969401       0.38613616       0.18120651 </v>
    <v>       0.58468793       0.37015427       0.98277941 </v>
    <v>       0.26909017       0.36793258       0.93910821 </v>
    <v>       0.11002109       0.64193587       0.98722965 </v>
    <v>       0.16403668       0.26243247       0.67558980 </v>
    <v>       0.80905569       0.34044363       0.47412717 </v>
    <v>       0.01228928       0.07604234       0.52471015 </v>
    <v>       0.80646239       0.90429579       0.52022741 </v>
    <v>       0.35899086       0.79505679       0.51831809 </v>
    <v>       0.32665024       0.22042109       0.45630904 </v>
    <v>       0.53049047       0.03342035       0.82366073 </v>
    <v>       0.94983355       0.70207280       0.04289048 </v>
    <v>       0.68304358       0.75790364       0.01155948 </v>
    <v>       0.64624159       0.10062037       0.04891605 </v>
    <v>       0.97273930       0.11178393       0.90552768 </v>
    <v>       0.79018001       0.41993766       0.06519857 </v>
    <v>       0.12353455       0.93427583       0.90182336 </v>
    <v>       0.49781300       0.34049631       0.92417212 </v>
    <v>       0.22447415       0.26439196       0.89637661 </v>
    <v>       0.46489940       0.91844987       0.04186927 </v>
    <v>       0.19396281       0.60475456       0.96400125 </v>
    <v>       0.14974435       0.24380932       0.54596346 </v>
    <v>       0.89234844       0.32063005       0.42661389 </v>
    <v>       0.86322208       0.64521983       0.56427448 </v>
    <v>       0.20119754       0.66961801       0.46065632 </v>
    <v>       0.97874246       0.96306470       0.50318029 </v>
    <v>       0.34083296       0.48381421       0.43413339 </v>
    <v>       0.71030438       0.89314579       0.51003090 </v>
    <v>       0.44755843       0.80991566       0.57457724 </v>
    <v>       0.68506276       0.45571109       0.52249778 </v>
    <v>       0.39653330       0.16649593       0.41099186 </v>
   </varray>
  </structure>
  <varray name="primitive_index" >
   <v type="int" >        1 </v>
   <v type="int" >        2 </v>
   <v type="int" >        3 </v>
   <v type="int" >        4 </v>
   <v type="int" >        5 </v>
   <v type="int" >        6 </v>
   <v type="int" >        7 </v>
   <v type="int" >        8 </v>
   <v type="int" >        9 </v>
   <v type="int" >       10 </v>
   <v type="int" >       11 </v>
   <v type="int" >       12 </v>
   <v type="int" >       13 </v>
   <v type="int" >       14 </v>
   <v type="int" >       15 </v>
   <v type="int" >       16 </v>
   <v type="int" >       17 </v>
   <v type="int" >       18 </v>
   <v type="int" >       19 </v>
   <v type="int" >       20 </v>
   <v type="int" >       21 </v>
   <v type="int" >       22 </v>
   <v type="int" >       23 </v>
   <v type="int" >       24 </v>
   <v type="int" >       25 </v>
   <v type="int" >       26 </v>
   <v type="int" >       27 </v>
   <v type="int" >       28 </v>
   <v type="int" >       29 </v>
   <v type="int" >       30 </v>
   <v type="int" >       31 </v>
   <v type="int" >       32 </v>
   <v type="int" >       33 </v>
   <v type="int" >       34 </v>
   <v type="int" >       35 </v>
   <v type="int" >       36 </v>
   <v type="int" >       37 </v>
   <v type="int" >       38 </v>
   <v type="int" >       39 </v>
   <v type="int" >       40 </v>
   <v type="int" >       41 </v>
   <v type="int" >       42 </v>
   <v type="int" >       43 </v>
   <v type="int" >       44 </v>
   <v type="int" >       45 </v>
   <v type="int" >       46 </v>
   <v type="int" >       47 </v>
   <v type="int" >       48 </v>
   <v type="int" >       49 </v>
   <v type="int" >       50 </v>
   <v type="int" >       51 </v>
   <v type="int" >       52 </v>
   <v type="int" >       53 </v>
   <v type="int" >       54 </v>
   <v type="int" >       55 </v>
   <v type="int" >       56 </v>
   <v type="int" >       57 </v>
   <v type="int" >       58 </v>
   <v type="int" >       59 </v>
   <v type="int" >       60 </v>
   <v type="int" >       61 </v>
   <v type="int" >       62 </v>
   <v type="int" >       63 </v>
   <v type="int" >       64 </v>
   <v type="int" >       65 </v>
   <v type="int" >       66 </v>
   <v type="int" >       67 </v>
   <v type="int" >       68 </v>
   <v type="int" >       69 </v>
   <v type="int" >       70 </v>
   <v type="int" >       71 </v>
   <v type="int" >       72 </v>
   <v type="int" >       73 </v>
   <v type="int" >       74 </v>
   <v type="int" >       75 </v>
   <v type="int" >       76 </v>
   <v type="int" >       77 </v>
   <v type="int" >       78 </v>
   <v type="int" >       79 </v>
   <v type="int" >       80 </v>
   <v type="int" >       81 </v>
   <v type="int" >       82 </v>
   <v type="int" >       83 </v>
   <v type="int" >       84 </v>
  </varray>
 </primitive_cell>
 <kpoints>
  <generation param="Monkhorst-Pack">
   <v type="int" name="divisions">       1        1        1 </v>
   <v name="usershift">      0.00000000       0.00000000       0.00000000 </v>
   <v name="genvec1">      1.00000000       0.00000000       0.00000000 </v>
   <v name="genvec2">     -0.00000000       1.00000000      -0.00000000 </v>
   <v name="genvec3">      0.00000000      -0.00000000       1.00000000 </v>
   <v name="shift">      0.00000000       0.00000000       0.00000000 </v>
  </generation>
  <varray name="kpointlist" >
   <v>       0.00000000       0.00000000       0.00000000 </v>
  </varray>
  <varray name="weights" >
   <v>       1.00000000 </v>
  </varray>
 </kpoints>
 <parameters>
  <separator name="general" >
   <i type="string" name="SYSTEM">unknown system</i>
   <i type="logical" name="LCOMPAT"> F  </i>
  </separator>
  <separator name="electronic" >
   <i type="string" name="PREC">normal</i>
   <i name="ENMAX">    450.00000000</i>
   <i name="ENAUG">    644.87300000</i>
   <i name="EDIFF">      0.00010000</i>
   <i type="int" name="IALGO">    68</i>
   <i type="int" name="IWAVPR">    12</i>
   <i type="int" name="NBANDS">   171</i>
   <i type="int" name="NBANDSLOW">    -1</i>
   <i type="int" name="NBANDSHIGH">    -1</i>
   <i name="NELECT">    256.00000000</i>
   <i type="int" name="TURBO">     0</i>
   <i type="int" name="IRESTART">     0</i>
   <i type="int" name="NREBOOT">     0</i>
   <i type="int" name="NMIN">     0</i>
   <i name="EREF">      0.00000000</i>
   <separator name="electronic smearing" >
    <i type="int" name="ISMEAR">     0</i>
    <i name="SIGMA">      0.05000000</i>
    <i name="KSPACING">      0.50000000</i>
    <i type="logical" name="KGAMMA"> T  </i>
    <i type="logical" name="KBLOWUP"> T  </i>
   </separator>
   <separator name="electronic projectors" >
    <i type="logical" name="LREAL"> T  </i>
    <v name="ROPT">     -0.00050000     -0.00050000     -0.00050000</v>
    <i type="int" name="LMAXPAW">  -100</i>
    <i type="int" name="LMAXMIX">     2</i>
    <i type="logical" name="NLSPLINE"> F  </i>
   </separator>
   <separator name="electronic startup" >
    <i type="int" name="ISTART">     0</i>
    <i type="int" name="ICHARG">     2</i>
    <i type="int" name="INIWAV">     1</i>
   </separator>
   <separator name="electronic spin" >
    <i type="int" name="ISPIN">     1</i>
    <i type="logical" name="LNONCOLLINEAR"> F  </i>
    <v name="MAGMOM">      1.00000000      1.00000000      1.00000000      1.00000000      1.00000000      1.00000000      1.00000000      1.00000000      1.00000000      1.00000000      1.00000000      1.00000000      1.00000000      1.00000000      1.00000000      1.00000000      1.00000000      1.00000000      1.00000000      1.00000000
      1.00000000      1.00000000      1.00000000      1.00000000      1.00000000      1.00000000      1.00000000      1.00000000      1.00000000      1.00000000      1.00000000      1.00000000      1.00000000      1.00000000      1.00000000      1.00000000      1.00000000      1.00000000      1.00000000      1.00000000
      1.00000000      1.00000000      1.00000000      1.00000000      1.00000000      1.00000000      1.00000000      1.00000000      1.00000000      1.00000000      1.00000000      1.00000000      1.00000000      1.00000000      1.00000000      1.00000000      1.00000000      1.00000000      1.00000000      1.00000000
      1.00000000      1.00000000      1.00000000      1.00000000      1.00000000      1.00000000      1.00000000      1.00000000      1.00000000      1.00000000      1.00000000      1.00000000      1.00000000      1.00000000      1.00000000      1.00000000      1.00000000      1.00000000      1.00000000      1.00000000
      1.00000000      1.00000000      1.00000000      1.00000000</v>
    <i name="NUPDOWN">     -1.00000000</i>
    <i type="logical" name="LSORBIT"> F  </i>
    <v name="SAXIS">      0.00000000      0.00000000      1.00000000</v>
    <i type="logical" name="LSPIRAL"> F  </i>
    <v name="QSPIRAL">      0.00000000      0.00000000      0.00000000</v>
    <i type="logical" name="LZEROZ"> F  </i>
   </separator>
   <separator name="electronic exchange-correlation" >
    <i type="logical" name="LASPH"> F  </i>
   </separator>
   <separator name="electronic convergence" >
    <i type="int" name="NELM">    60</i>
    <i type="int" name="NELMDL">    -5</i>
    <i type="int" name="NELMIN">     2</i>
    <i name="ENINI">    450.00000000</i>
    <separator name="electronic convergence detail" >
     <i type="logical" name="LDIAG"> T  </i>
     <i type="logical" name="LSUBROT"> F  </i>
     <i type="logical" name="LROBUST"> F  </i>
     <i type="int" name="ISEARCH">     0</i>
     <i name="WEIMIN">      0.00100000</i>
     <i name="EBREAK">      0.00000015</i>
     <i name="DEPER">      0.30000000</i>
     <i type="int" name="NRMM">     4</i>
     <i name="TIME">      0.40000000</i>
    </separator>
   </separator>
   <separator name="electronic mixer" >
    <i name="AMIX">      0.40000000</i>
    <i name="BMIX">      1.00000000</i>
    <i name="AMIN">      0.10000000</i>
    <i name="AMIX_MAG">      1.60000000</i>
    <i name="BMIX_MAG">      1.00000000</i>
    <separator name="electronic mixer details" >
     <i type="int" name="IMIX">     4</i>
     <i type="logical" name="MIXFIRST"> F  </i>
     <i type="int" name="MAXMIX">   -45</i>
     <i name="WC">    100.00000000</i>
     <i type="int" name="INIMIX">     1</i>
     <i type="int" name="MIXPRE">     1</i>
     <i type="int" name="MREMOVE">     5</i>
    </separator>
   </separator>
   <separator name="electronic dipolcorrection" >
    <i type="logical" name="LDIPOL"> F  </i>
    <i type="logical" name="LMONO"> F  </i>
    <i type="int" name="IDIPOL">     0</i>
    <i name="EPSILON">      1.00000000</i>
    <v name="DIPOL">   -100.00000000   -100.00000000   -100.00000000</v>
    <i name="EFIELD">      0.00000000</i>
    <i type="logical" name="LVACPOTAV"> F  </i>
   </separator>
  </separator>
  <separator name="grids" >
   <i type="int" name="NGX">    54</i>
   <i type="int" name="NGY">    48</i>
   <i type="int" name="NGZ">    40</i>
   <i type="int" name="NGXF">   108</i>
   <i type="int" name="NGYF">    96</i>
   <i type="int" name="NGZF">    80</i>
   <i type="logical" name="ADDGRID"> F  </i>
  </separator>
  <separator name="ionic" >
   <i type="int" name="NSW">    10</i>
   <i type="int" name="IBRION">     0</i>
   <i type="int" name="MDALGO">     4</i>
   <i type="int" name="ISIF">     2</i>
   <i name="PSTRESS">      0.00000000</i>
   <i name="EDIFFG">      0.00100000</i>
   <i type="int" name="NFREE">     0</i>
   <i name="POTIM">      0.50000000</i>
   <i name="SMASS">     -3.00000000</i>
   <i name="SCALEE">      1.00000000</i>
  </separator>
  <separator name="ionic md" >
   <i name="TEBEG">    300.00000000</i>
   <i name="TEEND">    300.00000000</i>
   <i type="int" name="NBLOCK">     1</i>
   <i type="int" name="KBLOCK">    10</i>
   <i type="int" name="NPACO">   256</i>
   <i name="APACO">     10.00000000</i>
  </separator>
  <separator name="symmetry" >
   <i type="int" name="ISYM">     0</i>
   <i name="SYMPREC">      0.00001000</i>
  </separator>
  <separator name="dos" >
   <i type="int" name="LORBIT">     0</i>
   <v name="RWIGS">     -1.00000000     -1.00000000     -1.00000000</v>
   <i type="int" name="NEDOS">   301</i>
   <i name="EMIN">     10.00000000</i>
   <i name="EMAX">    -10.00000000</i>
   <i name="EFERMI">      0.00000000</i>
  </separator>
  <separator name="writing" >
   <i type="int" name="NWRITE">     2</i>
   <i type="logical" name="LWAVE"> F  </i>
   <i type="logical" name="LDOWNSAMPLE"> F  </i>
   <i type="logical" name="LCHARG"> F  </i>
   <i type="logical" name="LPARD"> F  </i>
   <i type="logical" name="LVTOT"> F  </i>
   <i type="logical" name="LVHAR"> F  </i>
   <i type="logical" name="LELF"> F  </i>
   <i type="logical" name="LOPTICS"> F  </i>
   <v name="STM">      0.00000000      0.00000000      0.00000000      0.00000000      0.00000000      0.00000000      0.00000000</v>
  </separator>
  <separator name="performance" >
   <i type="int" name="NPAR">     1</i>
   <i type="int" name="NSIM">     4</i>
   <i type="int" name="NBLK">    -1</i>
   <i type="logical" name="LPLANE"> T  </i>
   <i type="logical" name="LSCALAPACK"> T  </i>
   <i type="logical" name="LSCAAWARE"> F  </i>
   <i type="logical" name="LSCALU"> F  </i>
   <i type="logical" name="LASYNC"> F  </i>
   <i type="logical" name="LORBITALREAL"> F  </i>
  </separator>
  <separator name="miscellaneous" >
   <i type="int" name="IDIOT">     3</i>
   <i type="int" name="PHON_NSTRUCT">    -1</i>
   <i type="logical" name="LMUSIC"> F  </i>
   <v name="POMASS">     12.01100000      1.00000000     16.00000000</v>
   <v name="DARWINR">      0.00000000      0.00000000      0.00000000</v>
   <v name="DARWINV">      1.00000000      1.00000000      1.00000000</v>
   <i type="logical" name="LCORR"> T  </i>
  </separator>
  <i type="logical" name="GGA_COMPAT"> T  </i>
  <i type="logical" name="LBERRY"> F  </i>
  <i type="int" name="ICORELEVEL">     0</i>
  <i type="logical" name="LDAU"> F  </i>
  <i type="int" name="I_CONSTRAINED_M">     0</i>
  <separator name="electronic exchange-correlation" >
   <i type="string" name="GGA    ">PE</i>
   <i type="string" name="XC_C">1</i>
   <i type="int" name="VOSKOWN">     0</i>
   <i type="logical" name="LHFCALC"> F  </i>
   <i type="string" name="PRECFOCK"></i>
   <i type="logical" name="LSYMGRAD"> F  </i>
   <i type="logical" name="LHFONE"> F  </i>
   <i type="logical" name="LRHFCALC"> F  </i>
   <i type="logical" name="LTHOMAS"> F  </i>
   <i type="logical" name="LMODELHF"> F  </i>
   <i type="logical" name="LFOCKACE"> F  </i>
   <i name="ENCUT4O">     -1.00000000</i>
   <i type="int" name="EXXOEP">     0</i>
   <i type="int" name="FOURORBIT">     0</i>
   <i name="AEXX">      0.00000000</i>
   <i name="HFALPHA">      0.00000000</i>
   <i name="MCALPHA">      0.00000000</i>
   <i name="ALDAX">      1.00000000</i>
   <i name="AGGAX">      1.00000000</i>
   <i name="AMGGAX">      1.00000000</i>
   <i name="ALDAC">      1.00000000</i>
   <i name="AGGAC">      1.00000000</i>
   <i name="AMGGAC">      1.00000000</i>
   <i type="int" name="NKREDX">     1</i>
   <i type="int" name="NKREDY">     1</i>
   <i type="int" name="NKREDZ">     1</i>
   <i type="logical" name="SHIFTRED"> F  </i>
   <i type="logical" name="ODDONLY"> F  </i>
   <i type="logical" name="EVENONLY"> F  </i>
   <i type="int" name="LMAXFOCK">     0</i>
   <i type="int" name="NMAXFOCKAE">     0</i>
   <i type="logical" name="LFOCKAEDFT"> F  </i>
   <i name="HFSCREEN">      0.00000000</i>
   <i name="HFSCREENC">      0.00000000</i>
   <i type="int" name="NBANDSGWLOW">     0</i>
  </separator>
  <separator name="vdW DFT" >
   <i type="logical" name="LUSE_VDW"> F  </i>
   <i type="int" name="IVDW_NL">    -1</i>
   <i type="logical" name="LSPIN_VDW"> F  </i>
   <i name="ZAB_VDW">     -0.84910000</i>
   <i name="GAMMA_VDW">      1.39626340</i>
   <i name="ALPHA_VDW">      0.00000000</i>
   <i name="PARAM1">      0.12340000</i>
   <i name="PARAM2">      1.00000000</i>
   <i name="BPARAM">      6.30000000</i>
   <i name="CPARAM">      0.00930000</i>
  </separator>
  <separator name="model GW" >
   <i type="int" name="MODEL_GW">     0</i>
   <i name="MODEL_EPS0">      4.79608708</i>
   <i name="MODEL_ALPHA">      1.00000000</i>
  </separator>
  <separator name="linear response parameters" >
   <i type="logical" name="LEPSILON"> F  </i>
   <i type="logical" name="LRPA"> F  </i>
   <i type="logical" name="LNABLA"> F  </i>
   <i type="logical" name="LVEL"> F  </i>
   <i name="CSHIFT">      0.10000000</i>
   <i name="OMEGAMAX">     -1.00000000</i>
   <i name="DEG_THRESHOLD">      0.00200000</i>
   <i name="RTIME">     -0.10000000</i>
   <i name="WPLASMAI">      0.00000000</i>
   <v name="DFIELD">      0.00000000      0.00000000      0.00000000</v>
   <v name="WPLASMA">      0.00000000      0.00000000      0.00000000      0.00000000      0.00000000      0.00000000      0.00000000      0.00000000      0.00000000</v>
  </separator>
  <separator name="orbital magnetization" >
   <i type="logical" name="NUCIND"> F  </i>
   <v name="MAGPOS">      0.00000000      0.00000000      0.00000000</v>
   <i type="logical" name="LNICSALL"> T  </i>
   <i type="logical" name="ORBITALMAG"> F  </i>
   <i type="logical" name="LMAGBLOCH"> F  </i>
   <i type="logical" name="LCHIMAG"> F  </i>
   <i type="logical" name="LGAUGE"> T  </i>
   <i type="int" name="MAGATOM">     0</i>
   <v name="MAGDIPOL">      0.00000000      0.00000000      0.00000000</v>
   <v name="AVECCONST">      0.00000000      0.00000000      0.00000000</v>
  </separator>
  <separator name="response functions" >
   <i type="logical" name="LALL_IN_ONE"> F  </i>
   <i type="int" name="IALL_IN_ONE">    -1</i>
   <i type="int" name="NBANDS_WAVE">    -1</i>
   <i type="logical" name="LFINITE_TEMPERATURE"> F  </i>
   <i type="logical" name="LADDER"> F  </i>
   <i type="logical" name="LRPAFORCE"> F  </i>
   <i type="logical" name="LFXC"> F  </i>
   <i type="logical" name="LHARTREE"> T  </i>
   <i type="int" name="IBSE">     2</i>
   <v type="int" name="KPOINT">    -1     0     0     0</v>
   <i type="logical" name="LTCTC"> F  </i>
   <i type="logical" name="LTCTE"> F  </i>
   <i type="logical" name="LTETE"> F  </i>
   <i type="logical" name="LTRIPLET"> F  </i>
   <i type="logical" name="LFXCEPS"> F  </i>
   <i type="logical" name="LFXHEG"> F  </i>
   <i type="int" name="NATURALO">     2</i>
   <i type="logical" name="LHOLEGF"> F  </i>
   <i type="logical" name="L2ORDER"> F  </i>
   <i type="logical" name="LDMP1"> F  </i>
   <i type="logical" name="LMP2LT"> F  </i>
   <i type="logical" name="LSMP2LT"> F  </i>
   <i type="logical" name="LGWLF"> F  </i>
   <i name="ENCUTGW">     -1.60000002</i>
   <i name="ENCUTGWSOFT">     -1.60000002</i>
   <i name="ENCUTLF">     -1.00000000</i>
   <i type="logical" name="ESF_SPLINES"> F  </i>
   <i name="ESF_CONV">      0.01000000</i>
   <i type="int" name="ESF_NINTER">    15</i>
   <i type="int" name="LMAXMP2">    -1</i>
   <i name="SCISSOR">      0.00000000</i>
   <i type="int" name="NOMEGA">     0</i>
   <i type="int" name="NOMEGAR">     0</i>
   <i type="int" name="NBANDSGW">    -1</i>
   <i type="int" name="NBANDSO">    -1</i>
   <i type="int" name="NBANDSV">    -1</i>
   <i type="int" name="NELMGW">     1</i>
   <i type="int" name="NELMHF">     1</i>
   <i type="int" name="DIM">     3</i>
   <i type="int" name="IESPILON">     4</i>
   <i type="int" name="ANTIRES">     0</i>
   <i name="OMEGAMAX">    -30.00000000</i>
   <i name="OMEGAMIN">    -30.00000000</i>
   <i name="OMEGATL">   -200.00000000</i>
   <i type="int" name="OMEGAGRID">     0</i>
   <i name="CSHIFT">     -0.10000000</i>
   <i type="logical" name="LSELFENERGY"> F  </i>
   <i type="logical" name="LSPECTRAL"> F  </i>
   <i type="logical" name="LSPECTRALGW"> F  </i>
   <i type="logical" name="LSINGLES"> F  </i>
   <i type="logical" name="LFERMIGW"> F  </i>
   <i type="logical" name="ODDONLYGW"> F  </i>
   <i type="logical" name="EVENONLYGW"> F  </i>
   <i type="int" name="NKREDLFX">     1</i>
   <i type="int" name="NKREDLFY">     1</i>
   <i type="int" name="NKREDLFZ">     1</i>
   <i type="int" name="MAXMEM">  2800</i>
   <i type="int" name="TELESCOPE">     0</i>
   <i type="int" name="NTAUPAR">    -1</i>
   <i type="int" name="NOMEGAPAR">    -1</i>
   <i name="DAMP_NEWTON">      0.80000001</i>
   <i name="LAMBDA">      1.00000000</i>
  </separator>
  <separator name="External order field" >
   <i name="OFIELD_KAPPA">      0.00000000</i>
   <v name="OFIELD_K">      0.00000000      0.00000000      0.00000000</v>
   <i name="OFIELD_Q6_NEAR">      0.00000000</i>
   <i name="OFIELD_Q6_FAR">      0.00000000</i>
   <i name="OFIELD_A">      0.00000000</i>
  </separator>
  <separator name="optional k-points parameters" >
   <i type="int" name="KPOINTS_OPT_MODE">     1</i>
   <i type="logical" name="LKPOINTS_OPT"> F  </i>
  </separator>
 </parameters>
 <atominfo>
  <atoms>      84 </atoms>
  <types>       3 </types>
  <array name="atoms" >
   <dimension dim="1">ion</dimension>
   <field type="string">element</field>
   <field type="int">atomtype</field>
   <set>
    <rc><c>C </c><c>   1</c></rc>
    <rc><c>C </c><c>   1</c></rc>
    <rc><c>C </c><c>   1</c></rc>
    <rc><c>C </c><c>   1</c></rc>
    <rc><c>C </c><c>   1</c></rc>
    <rc><c>C </c><c>   1</c></rc>
    <rc><c>C </c><c>   1</c></rc>
    <rc><c>C </c><c>   1</c></rc>
    <rc><c>C </c><c>   1</c></rc>
    <rc><c>C </c><c>   1</c></rc>
    <rc><c>C </c><c>   1</c></rc>
    <rc><c>C </c><c>   1</c></rc>
    <rc><c>C </c><c>   1</c></rc>
    <rc><c>C </c><c>   1</c></rc>
    <rc><c>C </c><c>   1</c></rc>
    <rc><c>C </c><c>   1</c></rc>
    <rc><c>C </c><c>   1</c></rc>
    <rc><c>C </c><c>   1</c></rc>
    <rc><c>C </c><c>   1</c></rc>
    <rc><c>C </c><c>   1</c></rc>
    <rc><c>C </c><c>   1</c></rc>
    <rc><c>C </c><c>   1</c></rc>
    <rc><c>C </c><c>   1</c></rc>
    <rc><c>C </c><c>   1</c></rc>
    <rc><c>H </c><c>   2</c></rc>
    <rc><c>H </c><c>   2</c></rc>
    <rc><c>H </c><c>   2</c></rc>
    <rc><c>H </c><c>   2</c></rc>
    <rc><c>H </c><c>   2</c></rc>
    <rc><c>H </c><c>   2</c></rc>
    <rc><c>H </c><c>   2</c></rc>
    <rc><c>H </c><c>   2</c></rc>
    <rc><c>H </c><c>   2</c></rc>
    <rc><c>H </c><c>   2</c></rc>
    <rc><c>H </c><c>   2</c></rc>
    <rc><c>H </c><c>   2</c></rc>
    <rc><c>H </c><c>   2</c></rc>
    <rc><c>H </c><c>   2</c></rc>
    <rc><c>H </c><c>   2</c></rc>
    <rc><c>H </c><c>   2</c></rc>
    <rc><c>H </c><c>   2</c></rc>
    <rc><c>H </c><c>   2</c></rc>
    <rc><c>H </c><c>   2</c></rc>
    <rc><c>H </c><c>   2</c></rc>
    <rc><c>H </c><c>   2</c></rc>
    <rc><c>H </c><c>   2</c></rc>
    <rc><c>H </c><c>   2</c></rc>
    <rc><c>H </c><c>   2</c></rc>
    <rc><c>H </c><c>   2</c></rc>
    <rc><c>H </c><c>   2</c></rc>
    <rc><c>H </c><c>   2</c></rc>
    <rc><c>H </c><c>   2</c></rc>
    <rc><c>H </c><c>   2</c></rc>
    <rc><c>H </c><c>   2</c></rc>
    <rc><c>H </c><c>   2</c></rc>
    <rc><c>H </c><c>   2</c></rc>
    <rc><c>H </c><c>   2</c></rc>
    <rc><c>H </c><c>   2</c></rc>
    <rc><c>H </c><c>   2</c></rc>
    <rc><c>H </c><c>   2</c></rc>
    <rc><c>H </c><c>   2</c></rc>
    <rc><c>H </c><c>   2</c></rc>
    <rc><c>H </c><c>   2</c></rc>
    <rc><c>H </c><c>   2</c></rc>
    <rc><c>O </c><c>   3</c></rc>
    <rc><c>O </c><c>   3</c></rc>
    <rc><c>O </c><c>   3</c></rc>
    <rc><c>O </c><c>   3</c></rc>
    <rc><c>O </c><c>   3</c></rc>
    <rc><c>O </c><c>   3</c></rc>
    <rc><c>O </c><c>   3</c></rc>
    <rc><c>O </c><c>   3</c></rc>
    <rc><c>O </c><c>   3</c></rc>
    <rc><c>O </c><c>   3</c></rc>
    <rc><c>O </c><c>   3</c></rc>
    <rc><c>O </c><c>   3</c></rc>
    <rc><c>O </c><c>   3</c></rc>
    <rc><c>O </c><c>   3</c></rc>
    <rc><c>O </c><c>   3</c></rc>
    <rc><c>O </c><c>   3</c></rc>
    <rc><c>O </c><c>   3</c></rc>
    <rc><c>O </c><c>   3</c></rc>
    <rc><c>O </c><c>   3</c></rc>
    <rc><c>O </c><c>   3</c></rc>
   </set>
  </array>
  <array name="atomtypes" >
   <dimension dim="1">type</dimension>
   <field type="int">atomspertype</field>
   <field type="string">element</field>
   <field>mass</field>
   <field>valence</field>
   <field type="string">pseudopotential</field>
   <set>
    <rc><c>  24</c><c>C </c><c>     12.01100000</c><c>      4.00000000</c><c>  PAW_PBE C 08Apr2002                   </c></rc>
    <rc><c>  40</c><c>H </c><c>      1.00000000</c><c>      1.00000000</c><c>  PAW_PBE H 15Jun2001                   </c></rc>
    <rc><c>  20</c><c>O </c><c>     16.00000000</c><c>      6.00000000</c><c>  PAW_PBE O 08Apr2002                   </c></rc>
   </set>
  </array>
 </atominfo>
 <structure name="initialpos" >
  <crystal>
   <varray name="basis" >
    <v>      10.37457494      -0.62795935      -0.41877549 </v>
    <v>      -0.50314792       8.45796955       0.36598113 </v>
    <v>      -0.23498639      -0.59520086       7.66420649 </v>
   </varray>
   <i name="volume">    671.45219127 </i>
   <varray name="rec_basis" >
    <v>       0.09686685       0.00561504       0.00340602 </v>
    <v>       0.00753898       0.11827272       0.00941618 </v>
    <v>       0.00493284      -0.00534095       0.13021312 </v>
   </varray>
  </crystal>
  <varray name="positions" >
   <v>       0.01572712       0.97540654       0.98371690 </v>
   <v>       0.90584085       0.83744082       0.96167441 </v>
   <v>       0.78511502       0.88574245       0.04327020 </v>
   <v>       0.75193630       0.04116114       0.96655404 </v>
   <v>       0.87062417       0.16560739       0.99793659 </v>
   <v>       0.85149073       0.33082340       0.93782142 </v>
   <v>       0.52388278       0.05989939       0.96466608 </v>
   <v>       0.44186261       0.19541960       0.99332373 </v>
   <v>       0.30981163       0.14382857       0.89774055 </v>
   <v>       0.24896892       0.99383792       0.98333761 </v>
   <v>       0.33688546       0.86175414       0.96382284 </v>
   <v>       0.29574580       0.70857454       0.05642700 </v>
   <v>       0.23334405       0.51966397       0.52006946 </v>
   <v>       0.12244551       0.38788728       0.46734476 </v>
   <v>       0.99162566       0.43239737       0.51485865 </v>
   <v>       0.97059132       0.60238129       0.47254580 </v>
   <v>       0.08795014       0.72219832       0.53207798 </v>
   <v>       0.08521165       0.88516280       0.45498513 </v>
   <v>       0.73910131       0.61508749       0.48199185 </v>
   <v>       0.66063527       0.73819457       0.55738545 </v>
   <v>       0.51948133       0.70199151       0.48852954 </v>
   <v>       0.46834290       0.52826458       0.52022878 </v>
   <v>       0.55464177       0.41202098       0.44579179 </v>
   <v>       0.51806559       0.23761646       0.49071263 </v>
   <v>       0.04213419       0.00487340       0.12393296 </v>
   <v>       0.88392751       0.81130796       0.82091201 </v>
   <v>       0.80672163       0.90832931       0.18556932 </v>
   <v>       0.72733402       0.02410404       0.82475470 </v>
   <v>       0.89955554       0.17641658       0.13972482 </v>
   <v>       0.78996014       0.32686241       0.81568596 </v>
   <v>       0.94818732       0.39311126       0.91658952 </v>
   <v>       0.43078089       0.20991416       0.13439831 </v>
   <v>       0.32431884       0.11114400       0.76050733 </v>
   <v>       0.24062275       0.02134168       0.12301036 </v>
   <v>       0.34390210       0.83266097       0.82406869 </v>
   <v>       0.27068639       0.73594741       0.18955118 </v>
   <v>       0.38091859       0.64320132       0.06684975 </v>
   <v>       0.25419360       0.52899197       0.66335117 </v>
   <v>       0.12172395       0.36627811       0.32531166 </v>
   <v>       0.98791395       0.42366910       0.65727989 </v>
   <v>       0.95035351       0.61134736       0.33099595 </v>
   <v>       0.10018943       0.73208999       0.67543884 </v>
   <v>       0.08197987       0.86604217       0.31218257 </v>
   <v>       0.17711971       0.95850434       0.49664626 </v>
   <v>       0.74089110       0.62275355       0.33858230 </v>
   <v>       0.66581937       0.72735364       0.70059948 </v>
   <v>       0.51375816       0.71942399       0.34631870 </v>
   <v>       0.46387163       0.51183765       0.66164854 </v>
   <v>       0.55386796       0.42220024       0.30260116 </v>
   <v>       0.52081381       0.23347908       0.63397263 </v>
   <v>       0.59142581       0.16596222       0.44492644 </v>
   <v>       0.87587936       0.61602169       0.04247291 </v>
   <v>       0.60112687       0.79822075       0.03908537 </v>
   <v>       0.81969401       0.38613616       0.18120651 </v>
   <v>       0.58468793       0.37015427       0.98277941 </v>
   <v>       0.26909017       0.36793258       0.93910821 </v>
   <v>       0.11002109       0.64193587       0.98722965 </v>
   <v>       0.16403668       0.26243247       0.67558980 </v>
   <v>       0.80905569       0.34044363       0.47412717 </v>
   <v>       0.01228928       0.07604234       0.52471015 </v>
   <v>       0.80646239       0.90429579       0.52022741 </v>
   <v>       0.35899086       0.79505679       0.51831809 </v>
   <v>       0.32665024       0.22042109       0.45630904 </v>
   <v>       0.53049047       0.03342035       0.82366073 </v>
   <v>       0.94983355       0.70207280       0.04289048 </v>
   <v>       0.68304358       0.75790364       0.01155948 </v>
   <v>       0.64624159       0.10062037       0.04891605 </v>
   <v>       0.97273930       0.11178393       0.90552768 </v>
   <v>       0.79018001       0.41993766       0.06519857 </v>
   <v>       0.12353455       0.93427583       0.90182336 </v>
   <v>       0.49781300       0.34049631       0.92417212 </v>
   <v>       0.22447415       0.26439196       0.89637661 </v>
   <v>       0.46489940       0.91844987       0.04186927 </v>
   <v>       0.19396281       0.60475456       0.96400125 </v>
   <v>       0.14974435       0.24380932       0.54596346 </v>
   <v>       0.89234844       0.32063005       0.42661389 </v>
   <v>       0.86322208       0.64521983       0.56427448 </v>
   <v>       0.20119754       0.66961801       0.46065632 </v>
   <v>       0.97874246       0.96306470       0.50318029 </v>
   <v>       0.34083296       0.48381421       0.43413339 </v>
   <v>       0.71030438       0.89314579       0.51003090 </v>
   <v>       0.44755843       0.80991566       0.57457724 </v>
   <v>       0.68506276       0.45571109       0.52249778 </v>
   <v>       0.39653330       0.16649593       0.41099186 </v>
  </varray>
  <varray name="velocities" >
   <v>       0.00000000       0.00000000       0.00000000 </v>
   <v>       0.00000000       0.00000000       0.00000000 </v>
   <v>       0.00000000       0.00000000       0.00000000 </v>
   <v>       0.00000000       0.00000000       0.00000000 </v>
   <v>       0.00000000       0.00000000       0.00000000 </v>
   <v>       0.00000000       0.00000000       0.00000000 </v>
   <v>       0.00000000       0.00000000       0.00000000 </v>
   <v>       0.00000000       0.00000000       0.00000000 </v>
   <v>       0.00000000       0.00000000       0.00000000 </v>
   <v>       0.00000000       0.00000000       0.00000000 </v>
   <v>       0.00000000       0.00000000       0.00000000 </v>
   <v>       0.00000000       0.00000000       0.00000000 </v>
   <v>       0.00000000       0.00000000       0.00000000 </v>
   <v>       0.00000000       0.00000000       0.00000000 </v>
   <v>       0.00000000       0.00000000       0.00000000 </v>
   <v>       0.00000000       0.00000000       0.00000000 </v>
   <v>       0.00000000       0.00000000       0.00000000 </v>
   <v>       0.00000000       0.00000000       0.00000000 </v>
   <v>       0.00000000       0.00000000       0.00000000 </v>
   <v>       0.00000000       0.00000000       0.00000000 </v>
   <v>       0.00000000       0.00000000       0.00000000 </v>
   <v>       0.00000000       0.00000000       0.00000000 </v>
   <v>       0.00000000       0.00000000       0.00000000 </v>
   <v>       0.00000000       0.00000000       0.00000000 </v>
   <v>       0.00000000       0.00000000       0.00000000 </v>
   <v>       0.00000000       0.00000000       0.00000000 </v>
   <v>       0.00000000       0.00000000       0.00000000 </v>
   <v>       0.00000000       0.00000000       0.00000000 </v>
   <v>       0.00000000       0.00000000       0.00000000 </v>
   <v>       0.00000000       0.00000000       0.00000000 </v>
   <v>       0.00000000       0.00000000       0.00000000 </v>
   <v>       0.00000000       0.00000000       0.00000000 </v>
   <v>       0.00000000       0.00000000       0.00000000 </v>
   <v>       0.00000000       0.00000000       0.00000000 </v>
   <v>       0.00000000       0.00000000       0.00000000 </v>
   <v>       0.00000000       0.00000000       0.00000000 </v>
   <v>       0.00000000       0.00000000       0.00000000 </v>
   <v>       0.00000000       0.00000000       0.00000000 </v>
   <v>       0.00000000       0.00000000       0.00000000 </v>
   <v>       0.00000000       0.00000000       0.00000000 </v>
   <v>       0.00000000       0.00000000       0.00000000 </v>
   <v>       0.00000000       0.00000000       0.00000000 </v>
   <v>       0.00000000       0.00000000       0.00000000 </v>
   <v>       0.00000000       0.00000000       0.00000000 </v>
   <v>       0.00000000       0.00000000       0.00000000 </v>
   <v>       0.00000000       0.00000000       0.00000000 </v>
   <v>       0.00000000       0.00000000       0.00000000 </v>
   <v>       0.00000000       0.00000000       0.00000000 </v>
   <v>       0.00000000       0.00000000       0.00000000 </v>
   <v>       0.00000000       0.00000000       0.00000000 </v>
   <v>       0.00000000       0.00000000       0.00000000 </v>
   <v>       0.00000000       0.00000000       0.00000000 </v>
   <v>       0.00000000       0.00000000       0.00000000 </v>
   <v>       0.00000000       0.00000000       0.00000000 </v>
   <v>       0.00000000       0.00000000       0.00000000 </v>
   <v>       0.00000000       0.00000000       0.00000000 </v>
   <v>       0.00000000       0.00000000       0.00000000 </v>
   <v>       0.00000000       0.00000000       0.00000000 </v>
   <v>       0.00000000       0.00000000       0.00000000 </v>
   <v>       0.00000000       0.00000000       0.00000000 </v>
   <v>       0.00000000       0.00000000       0.00000000 </v>
   <v>       0.00000000       0.00000000       0.00000000 </v>
   <v>       0.00000000       0.00000000       0.00000000 </v>
   <v>       0.00000000       0.00000000       0.00000000 </v>
   <v>       0.00000000       0.00000000       0.00000000 </v>
   <v>       0.00000000       0.00000000       0.00000000 </v>
   <v>       0.00000000       0.00000000       0.00000000 </v>
   <v>       0.00000000       0.00000000       0.00000000 </v>
   <v>       0.00000000       0.00000000       0.00000000 </v>
   <v>       0.00000000       0.00000000       0.00000000 </v>
   <v>       0.00000000       0.00000000       0.00000000 </v>
   <v>       0.00000000       0.00000000       0.00000000 </v>
   <v>       0.00000000       0.00000000       0.00000000 </v>
   <v>       0.00000000       0.00000000       0.00000000 </v>
   <v>       0.00000000       0.00000000       0.00000000 </v>
   <v>       0.00000000       0.00000000       0.00000000 </v>
   <v>       0.00000000       0.00000000       0.00000000 </v>
   <v>       0.00000000       0.00000000       0.00000000 </v>
   <v>       0.00000000       0.00000000       0.00000000 </v>
   <v>       0.00000000       0.00000000       0.00000000 </v>
   <v>       0.00000000       0.00000000       0.00000000 </v>
   <v>       0.00000000       0.00000000       0.00000000 </v>
   <v>       0.00000000       0.00000000       0.00000000 </v>
   <v>       0.00000000       0.00000000       0.00000000 </v>
  </varray>
 </structure>
 <calculation>
  <scstep>
   <time name="dav">    0.74    3.65</time>
   <time name="total">    0.83    3.72</time>
   <energy>
    <i name="alphaZ">    401.66401064 </i>
    <i name="ewald">  -6160.57525716 </i>
    <i name="hartreedc">  -5743.53544927 </i>
    <i name="XCdc">    978.78904031 </i>
    <i name="pawpsdc">   9620.87974837 </i>
    <i name="pawaedc">  -9670.87401246 </i>
    <i name="eentropy">     -0.03800066 </i>
    <i name="bandstr">   -739.56445142 </i>
    <i name="atom">  12677.61814180 </i>
    <i name="e_fr_energy">   1364.36377016 </i>
    <i name="e_wo_entrp">   1364.40177081 </i>
    <i name="e_0_energy">   1364.38277049 </i>
   </energy>
  </scstep>
  <scstep>
   <time name="dav">    0.63    0.63</time>
   <time name="total">    0.63    0.63</time>
   <energy>
    <i name="e_fr_energy">   -390.89197707 </i>
    <i name="e_wo_entrp">   -390.89197707 </i>
    <i name="e_0_energy">   -390.89197707 </i>
   </energy>
  </scstep>
  <scstep>
   <time name="dav">    0.62    0.62</time>
   <time name="total">    0.62    0.62</time>
   <energy>
    <i name="e_fr_energy">   -523.67203343 </i>
    <i name="e_wo_entrp">   -523.67203343 </i>
    <i name="e_0_energy">   -523.67203343 </i>
   </energy>
  </scstep>
  <scstep>
   <time name="dav">    0.64    0.64</time>
   <time name="total">    0.64    0.64</time>
   <energy>
    <i name="e_fr_energy">   -526.40766394 </i>
    <i name="e_wo_entrp">   -526.40766394 </i>
    <i name="e_0_energy">   -526.40766394 </i>
   </energy>
  </scstep>
  <scstep>
   <time name="dav">    0.62    0.62</time>
   <time name="total">    0.68    0.68</time>
   <energy>
    <i name="e_fr_energy">   -526.47908152 </i>
    <i name="e_wo_entrp">   -526.47908152 </i>
    <i name="e_0_energy">   -526.47908152 </i>
   </energy>
  </scstep>
  <scstep>
   <time name="diag">    0.07    0.07</time>
   <time name="diis">    0.22    0.23</time>
   <time name="orth">    0.02    0.02</time>
   <time name="total">    0.45    0.42</time>
   <energy>
    <i name="e_fr_energy">   -499.90289642 </i>
    <i name="e_wo_entrp">   -499.90289642 </i>
    <i name="e_0_energy">   -499.90289642 </i>
   </energy>
  </scstep>
  <scstep>
   <time name="diag">    0.07    0.07</time>
   <time name="diis">    0.22    0.22</time>
   <time name="orth">    0.02    0.02</time>
   <time name="total">    0.44    0.41</time>
   <energy>
    <i name="e_fr_energy">   -496.16402797 </i>
    <i name="e_wo_entrp">   -496.16402797 </i>
    <i name="e_0_energy">   -496.16402797 </i>
   </energy>
  </scstep>
  <scstep>
   <time name="diag">    0.07    0.07</time>
   <time name="diis">    0.22    0.22</time>
   <time name="orth">    0.02    0.02</time>
   <time name="total">    0.46    0.66</time>
   <energy>
    <i name="e_fr_energy">   -495.87929102 </i>
    <i name="e_wo_entrp">   -495.87929102 </i>
    <i name="e_0_energy">   -495.87929102 </i>
   </energy>
  </scstep>
  <scstep>
   <time name="diag">    0.07    0.07</time>
   <time name="diis">    0.23    0.23</time>
   <time name="orth">    0.02    0.02</time>
   <time name="total">    0.47    0.43</time>
   <energy>
    <i name="e_fr_energy">   -495.86931990 </i>
    <i name="e_wo_entrp">   -495.86931990 </i>
    <i name="e_0_energy">   -495.86931990 </i>
   </energy>
  </scstep>
  <scstep>
   <time name="diag">    0.07    0.07</time>
   <time name="diis">    0.24    0.24</time>
   <time name="orth">    0.02    0.02</time>
   <time name="total">    0.48    0.44</time>
   <energy>
    <i name="e_fr_energy">   -495.87948275 </i>
    <i name="e_wo_entrp">   -495.87948275 </i>
    <i name="e_0_energy">   -495.87948275 </i>
   </energy>
  </scstep>
  <scstep>
   <time name="diag">    0.07    0.07</time>
   <time name="diis">    0.22    0.22</time>
   <time name="orth">    0.02    0.02</time>
   <time name="total">    0.45    0.41</time>
   <energy>
    <i name="e_fr_energy">   -495.88123951 </i>
    <i name="e_wo_entrp">   -495.88123951 </i>
    <i name="e_0_energy">   -495.88123951 </i>
   </energy>
  </scstep>
  <scstep>
   <time name="diag">    0.07    0.07</time>
   <time name="diis">    0.22    0.22</time>
   <time name="orth">    0.02    0.02</time>
   <time name="total">    0.45    0.41</time>
   <energy>
    <i name="e_fr_energy">   -495.87927632 </i>
    <i name="e_wo_entrp">   -495.87927632 </i>
    <i name="e_0_energy">   -495.87927632 </i>
   </energy>
  </scstep>
  <scstep>
   <time name="diag">    0.08    0.21</time>
   <time name="diis">    0.21    0.21</time>
   <time name="orth">    0.02    0.02</time>
   <time name="total">    0.45    1.36</time>
   <energy>
    <i name="e_fr_energy">   -495.87956255 </i>
    <i name="e_wo_entrp">   -495.87956255 </i>
    <i name="e_0_energy">   -495.87956255 </i>
   </energy>
  </scstep>
  <scstep>
   <time name="diag">    0.07    0.07</time>
   <time name="diis">    0.19    0.19</time>
   <time name="orth">    0.02    0.02</time>
   <time name="total">    0.41    0.37</time>
   <energy>
    <i name="e_fr_energy">   -495.87945231 </i>
    <i name="e_wo_entrp">   -495.87945231 </i>
    <i name="e_0_energy">   -495.87945231 </i>
   </energy>
  </scstep>
  <scstep>
   <time name="diag">    0.07    0.07</time>
   <time name="diis">    0.15    0.14</time>
   <time name="orth">    0.02    0.02</time>
   <time name="total">    0.31    0.28</time>
   <energy>
    <i name="alphaZ">    401.66401064 </i>
    <i name="ewald">  -6160.57525716 </i>
    <i name="hartreedc">  -6318.91373812 </i>
    <i name="XCdc">   1018.95584073 </i>
    <i name="pawpsdc">  19778.39618801 </i>
    <i name="pawaedc"> -19836.08241279 </i>
    <i name="eentropy">     -0.00000000 </i>
    <i name="bandstr">  -2056.94224213 </i>
    <i name="atom">  12677.61814180 </i>
    <i name="e_fr_energy">   -495.87946901 </i>
    <i name="e_wo_entrp">   -495.87946901 </i>
    <i name="e_0_energy">   -495.87946901 </i>
   </energy>
  </scstep>
  <structure>
   <crystal>
    <varray name="basis" >
     <v>      10.37457494      -0.62795935      -0.41877549 </v>
     <v>      -0.50314792       8.45796955       0.36598113 </v>
     <v>      -0.23498639      -0.59520086       7.66420649 </v>
    </varray>
    <i name="volume">    671.45219127 </i>
    <varray name="rec_basis" >
     <v>       0.09686685       0.00561504       0.00340602 </v>
     <v>       0.00753898       0.11827272       0.00941618 </v>
     <v>       0.00493284      -0.00534095       0.13021312 </v>
    </varray>
   </crystal>
   <varray name="positions" >
    <v>       0.01572712       0.97540654       0.98371690 </v>
    <v>       0.90584085       0.83744082       0.96167441 </v>
    <v>       0.78511502       0.88574245       0.04327020 </v>
    <v>       0.75193630       0.04116114       0.96655404 </v>
    <v>       0.87062417       0.16560739       0.99793659 </v>
    <v>       0.85149073       0.33082340       0.93782142 </v>
    <v>       0.52388278       0.05989939       0.96466608 </v>
    <v>       0.44186261       0.19541960       0.99332373 </v>
    <v>       0.30981163       0.14382857       0.89774055 </v>
    <v>       0.24896892       0.99383792       0.98333761 </v>
    <v>       0.33688546       0.86175414       0.96382284 </v>
    <v>       0.29574580       0.70857454       0.05642700 </v>
    <v>       0.23334405       0.51966397       0.52006946 </v>
    <v>       0.12244551       0.38788728       0.46734476 </v>
    <v>       0.99162566       0.43239737       0.51485865 </v>
    <v>       0.97059132       0.60238129       0.47254580 </v>
    <v>       0.08795014       0.72219832       0.53207798 </v>
    <v>       0.08521165       0.88516280       0.45498513 </v>
    <v>       0.73910131       0.61508749       0.48199185 </v>
    <v>       0.66063527       0.73819457       0.55738545 </v>
    <v>       0.51948133       0.70199151       0.48852954 </v>
    <v>       0.46834290       0.52826458       0.52022878 </v>
    <v>       0.55464177       0.41202098       0.44579179 </v>
    <v>       0.51806559       0.23761646       0.49071263 </v>
    <v>       0.04213419       0.00487340       0.12393296 </v>
    <v>       0.88392751       0.81130796       0.82091201 </v>
    <v>       0.80672163       0.90832931       0.18556932 </v>
    <v>       0.72733402       0.02410404       0.82475470 </v>
    <v>       0.89955554       0.17641658       0.13972482 </v>
    <v>       0.78996014       0.32686241       0.81568596 </v>
    <v>       0.94818732       0.39311126       0.91658952 </v>
    <v>       0.43078089       0.20991416       0.13439831 </v>
    <v>       0.32431884       0.11114400       0.76050733 </v>
    <v>       0.24062275       0.02134168       0.12301036 </v>
    <v>       0.34390210       0.83266097       0.82406869 </v>
    <v>       0.27068639       0.73594741       0.18955118 </v>
    <v>       0.38091859       0.64320132       0.06684975 </v>
    <v>       0.25419360       0.52899197       0.66335117 </v>
    <v>       0.12172395       0.36627811       0.32531166 </v>
    <v>       0.98791395       0.42366910       0.65727989 </v>
    <v>       0.95035351       0.61134736       0.33099595 </v>
    <v>       0.10018943       0.73208999       0.67543884 </v>
    <v>       0.08197987       0.86604217       0.31218257 </v>
    <v>       0.17711971       0.95850434       0.49664626 </v>
    <v>       0.74089110       0.62275355       0.33858230 </v>
    <v>       0.66581937       0.72735364       0.70059948 </v>
    <v>       0.51375816       0.71942399       0.34631870 </v>
    <v>       0.46387163       0.51183765       0.66164854 </v>
    <v>       0.55386796       0.42220024       0.30260116 </v>
    <v>       0.52081381       0.23347908       0.63397263 </v>
    <v>       0.59142581       0.16596222       0.44492644 </v>
    <v>       0.87587936       0.61602169       0.04247291 </v>
    <v>       0.60112687       0.79822075       0.03908537 </v>
    <v>       0.81969401       0.38613616       0.18120651 </v>
    <v>       0.58468793       0.37015427       0.98277941 </v>
    <v>       0.26909017       0.36793258       0.93910821 </v>
    <v>       0.11002109       0.64193587       0.98722965 </v>
    <v>       0.16403668       0.26243247       0.67558980 </v>
    <v>       0.80905569       0.34044363       0.47412717 </v>
    <v>       0.01228928       0.07604234       0.52471015 </v>
    <v>       0.80646239       0.90429579       0.52022741 </v>
    <v>       0.35899086       0.79505679       0.51831809 </v>
    <v>       0.32665024       0.22042109       0.45630904 </v>
    <v>       0.53049047       0.03342035       0.82366073 </v>
    <v>       0.94983355       0.70207280       0.04289048 </v>
    <v>       0.68304358       0.75790364       0.01155948 </v>
    <v>       0.64624159       0.10062037       0.04891605 </v>
    <v>       0.97273930       0.11178393       0.90552768 </v>
    <v>       0.79018001       0.41993766       0.06519857 </v>
    <v>       0.12353455       0.93427583       0.90182336 </v>
    <v>       0.49781300       0.34049631       0.92417212 </v>
    <v>       0.22447415       0.26439196       0.89637661 </v>
    <v>       0.46489940       0.91844987       0.04186927 </v>
    <v>       0.19396281       0.60475456       0.96400125 </v>
    <v>       0.14974435       0.24380932       0.54596346 </v>
    <v>       0.89234844       0.32063005       0.42661389 </v>
    <v>       0.86322208       0.64521983       0.56427448 </v>
    <v>       0.20119754       0.66961801       0.46065632 </v>
    <v>       0.97874246       0.96306470       0.50318029 </v>
    <v>       0.34083296       0.48381421       0.43413339 </v>
    <v>       0.71030438       0.89314579       0.51003090 </v>
    <v>       0.44755843       0.80991566       0.57457724 </v>
    <v>       0.68506276       0.45571109       0.52249778 </v>
    <v>       0.39653330       0.16649593       0.41099186 </v>
   </varray>
  </structure>
  <varray name="forces" >
   <v>      -0.02934661      -0.00727463      -0.00719180 </v>
   <v>      -0.06411660       0.01685533      -0.01534585 </v>
   <v>       0.04940585       0.02817859       0.01968654 </v>
   <v>       0.05632305       0.03464696       0.04450027 </v>
   <v>      -0.00814429       0.00900418       0.00151191 </v>
   <v>       0.00336211       0.00923126       0.02656123 </v>
   <v>      -0.03187264      -0.07405666      -0.04146718 </v>
   <v>      -0.01613698      -0.04614552      -0.07026440 </v>
   <v>       0.06651136      -0.00214735       0.07062212 </v>
   <v>       0.05932654       0.01515287      -0.03690667 </v>
   <v>       0.04553545       0.04057786      -0.05717889 </v>
   <v>       0.00546816      -0.00183171       0.03337305 </v>
   <v>      -0.00588571       0.04937354      -0.03138358 </v>
   <v>       0.02432492       0.02360253       0.04654688 </v>
   <v>       0.08068696       0.01780843      -0.01345569 </v>
   <v>       0.07366776       0.07869957      -0.04944090 </v>
   <v>       0.00723584      -0.06621077       0.03165808 </v>
   <v>       0.00699472       0.03187800      -0.03277118 </v>
   <v>      -0.01898772       0.07514042       0.03339857 </v>
   <v>      -0.06139835      -0.04751993      -0.00775276 </v>
   <v>      -0.00611074      -0.00341100       0.00515639 </v>
   <v>      -0.00672438      -0.01046781       0.01948640 </v>
   <v>       0.03116108      -0.02202640      -0.00759034 </v>
   <v>       0.05537423       0.05040702      -0.04460070 </v>
   <v>      -0.00646239       0.00531186       0.03267416 </v>
   <v>      -0.00574075       0.03849767       0.01377554 </v>
   <v>       0.01275063      -0.01233777       0.00754248 </v>
   <v>      -0.01919606      -0.01314823      -0.06344565 </v>
   <v>       0.01862766      -0.02655817       0.03343600 </v>
   <v>      -0.01346046       0.01327680      -0.02949432 </v>
   <v>      -0.01102087      -0.03290195      -0.00790955 </v>
   <v>      -0.01429921      -0.02175747       0.06471938 </v>
   <v>       0.00747161       0.01643114      -0.06993423 </v>
   <v>       0.01095368       0.01299664       0.02174294 </v>
   <v>      -0.00626948       0.00858191      -0.01748000 </v>
   <v>      -0.01110490       0.01425648       0.03980104 </v>
   <v>      -0.01479892       0.02037304       0.01070476 </v>
   <v>      -0.01627648      -0.00289285       0.02203757 </v>
   <v>       0.00683197      -0.01061322      -0.05176223 </v>
   <v>      -0.00654576      -0.00371416       0.01929814 </v>
   <v>      -0.01746093       0.01330254      -0.02405576 </v>
   <v>      -0.00658308      -0.03713793       0.00689891 </v>
   <v>       0.00784299      -0.01588840      -0.00235559 </v>
   <v>       0.03999081       0.00575737       0.00727228 </v>
   <v>      -0.01790303       0.01748283      -0.05168310 </v>
   <v>       0.01207126       0.01447081       0.06003194 </v>
   <v>       0.00866137       0.01189694      -0.00710619 </v>
   <v>       0.01720235      -0.00410476       0.00858367 </v>
   <v>      -0.03013013       0.02191781      -0.04252132 </v>
   <v>       0.00389021       0.00269811       0.02052042 </v>
   <v>      -0.01640824       0.02892533      -0.01422230 </v>
   <v>      -0.00066652      -0.01380758      -0.00792485 </v>
   <v>      -0.04214517      -0.00802257       0.00833200 </v>
   <v>       0.03005290      -0.01341780       0.04651395 </v>
   <v>       0.02023064      -0.00272093       0.03260579 </v>
   <v>       0.00156354       0.00143455       0.00360857 </v>
   <v>      -0.06188673       0.02062457       0.00714460 </v>
   <v>       0.01339584       0.00302665       0.02885765 </v>
   <v>      -0.07333715       0.01204761      -0.00390412 </v>
   <v>       0.01590380       0.04234941       0.01004252 </v>
   <v>       0.02062398       0.01770922       0.00189204 </v>
   <v>      -0.01953947      -0.00962708      -0.02196389 </v>
   <v>      -0.02419290      -0.01157327       0.02536837 </v>
   <v>       0.00250226       0.00890420       0.01893722 </v>
   <v>       0.07434417      -0.07097373      -0.01893751 </v>
   <v>      -0.00527725      -0.08122483       0.00927427 </v>
   <v>      -0.01072896       0.01344683       0.01866627 </v>
   <v>       0.03165961       0.07275989      -0.02766381 </v>
   <v>       0.01610715      -0.01957744      -0.04656411 </v>
   <v>      -0.04382606      -0.03094687      -0.00498000 </v>
   <v>       0.00055345       0.08235865      -0.00088442 </v>
   <v>      -0.05319994       0.02463136      -0.01362751 </v>
   <v>      -0.01361143      -0.02190755      -0.00798083 </v>
   <v>       0.03833861      -0.07870824      -0.05305207 </v>
   <v>      -0.01349092      -0.05633302      -0.00186489 </v>
   <v>       0.01148679      -0.06587136      -0.02416726 </v>
   <v>      -0.00262304       0.00881154       0.05480283 </v>
   <v>       0.03546291       0.01623809       0.01273071 </v>
   <v>      -0.10964449      -0.01691590      -0.00482691 </v>
   <v>      -0.03349503       0.00493914       0.01842211 </v>
   <v>       0.01452341       0.08064675       0.00128324 </v>
   <v>      -0.00592982      -0.00191743       0.02449997 </v>
   <v>      -0.02484341      -0.05730993      -0.01198736 </v>
   <v>      -0.05777652      -0.09748761       0.01993292 </v>
  </varray>
  <varray name="stress" >
   <v>      -7.40464458      -0.44718213      -0.67685337 </v>
   <v>      -0.44718205      -6.91575187       1.02002192 </v>
   <v>      -0.67685350       1.02002195     -11.02545758 </v>
  </varray>
  <energy>
   <i name="e_fr_energy">   -501.22604718 </i>
   <i name="e_wo_entrp">   -501.22604718 </i>
   <i name="e_0_energy">   -501.22604718 </i>
   <i name="kinetic">      0.00002628 </i>
   <i name="lattice kinetic">      0.00000000 </i>
   <i name="nosepot">      0.00000000 </i>
   <i name="nosekinetic">      0.00000000 </i>
   <i name="total">   -501.22602090 </i>
  </energy>
  <time name="totalsc">    9.50   13.05</time>
 </calculation>
 <calculation>
  <scstep>
   <time name="dav">    0.47    0.47</time>
   <time name="total">    0.60    0.56</time>
   <energy>
    <i name="alphaZ">    401.66401064 </i>
    <i name="ewald">  -6160.78558604 </i>
    <i name="hartreedc">  -6318.74554272 </i>
    <i name="XCdc">   1018.94939429 </i>
    <i name="pawpsdc">  19777.85620991 </i>
    <i name="pawaedc"> -19835.54143899 </i>
    <i name="eentropy">     -0.00000000 </i>
    <i name="bandstr">  -2056.89485702 </i>
    <i name="atom">  12677.61814180 </i>
    <i name="e_fr_energy">   -495.87966813 </i>
    <i name="e_wo_entrp">   -495.87966813 </i>
    <i name="e_0_energy">   -495.87966813 </i>
   </energy>
  </scstep>
  <scstep>
   <time name="diag">    0.07    0.07</time>
   <time name="diis">    0.15    0.15</time>
   <time name="orth">    0.02    0.02</time>
   <time name="total">    0.32    0.29</time>
   <energy>
    <i name="alphaZ">    401.66401064 </i>
    <i name="ewald">  -6160.78558604 </i>
    <i name="hartreedc">  -6318.71592559 </i>
    <i name="XCdc">   1018.94765769 </i>
    <i name="pawpsdc">  19777.61439661 </i>
    <i name="pawaedc"> -19835.29911758 </i>
    <i name="eentropy">     -0.00000000 </i>
    <i name="bandstr">  -2056.92324744 </i>
    <i name="atom">  12677.61814180 </i>
    <i name="e_fr_energy">   -495.87966991 </i>
    <i name="e_wo_entrp">   -495.87966991 </i>
    <i name="e_0_energy">   -495.87966991 </i>
   </energy>
  </scstep>
  <structure>
   <crystal>
    <varray name="basis" >
     <v>      10.37457494      -0.62795935      -0.41877549 </v>
     <v>      -0.50314792       8.45796955       0.36598113 </v>
     <v>      -0.23498639      -0.59520086       7.66420649 </v>
    </varray>
    <i name="volume">    671.45219127 </i>
    <varray name="rec_basis" >
     <v>       0.09686685       0.00561504       0.00340602 </v>
     <v>       0.00753898       0.11827272       0.00941618 </v>
     <v>       0.00493284      -0.00534095       0.13021312 </v>
    </varray>
   </crystal>
   <varray name="positions" >
    <v>       0.01572654       0.97540630       0.98371669 </v>
    <v>       0.90583962       0.83744109       0.96167393 </v>
    <v>       0.78511604       0.88574323       0.04327073 </v>
    <v>       0.75193747       0.04116212       0.96655523 </v>
    <v>       0.87062403       0.16560759       0.99793661 </v>
    <v>       0.85149083       0.33082367       0.93782211 </v>
    <v>       0.52388206       0.05989750       0.96466504 </v>
    <v>       0.44186220       0.19541834       0.99332193 </v>
    <v>       0.30981298       0.14382875       0.89774247 </v>
    <v>       0.24897007       0.99383830       0.98333669 </v>
    <v>       0.33688636       0.86175506       0.96382135 </v>
    <v>       0.29574593       0.70857456       0.05642789 </v>
    <v>       0.23334397       0.51966506       0.52006858 </v>
    <v>       0.12244605       0.38788796       0.46734597 </v>
    <v>       0.99162725       0.43239788       0.51485836 </v>
    <v>       0.97059282       0.60238318       0.47254450 </v>
    <v>       0.08795023       0.72219681       0.53207889 </v>
    <v>       0.08521181       0.88516350       0.45498424 </v>
    <v>       0.73910106       0.61508931       0.48199262 </v>
    <v>       0.66063402       0.73819332       0.55738524 </v>
    <v>       0.51948122       0.70199142       0.48852968 </v>
    <v>       0.46834277       0.52826435       0.52022930 </v>
    <v>       0.55464235       0.41202048       0.44579165 </v>
    <v>       0.51806670       0.23761765       0.49071147 </v>
    <v>       0.04213303       0.00487553       0.12394308 </v>
    <v>       0.88392681       0.81131915       0.82091578 </v>
    <v>       0.80672451       0.90832618       0.18557200 </v>
    <v>       0.72732884       0.02409850       0.82473472 </v>
    <v>       0.89955981       0.17641010       0.13973588 </v>
    <v>       0.78995694       0.32686528       0.81567637 </v>
    <v>       0.94818424       0.39310148       0.91658733 </v>
    <v>       0.43077780       0.20990916       0.13441875 </v>
    <v>       0.32432024       0.11114723       0.76048525 </v>
    <v>       0.24062568       0.02134608       0.12301716 </v>
    <v>       0.34390061       0.83266290       0.82406302 </v>
    <v>       0.27068432       0.73595217       0.18956336 </v>
    <v>       0.38091550       0.64320710       0.06685267 </v>
    <v>       0.25418995       0.52899134       0.66335794 </v>
    <v>       0.12172498       0.36627402       0.32529562 </v>
    <v>       0.98791253       0.42366836       0.65728592 </v>
    <v>       0.95034942       0.61135029       0.33098802 </v>
    <v>       0.10018745       0.73207943       0.67544141 </v>
    <v>       0.08198147       0.86603772       0.31218213 </v>
    <v>       0.17712920       0.95850687       0.49664894 </v>
    <v>       0.74088673       0.62275703       0.33856563 </v>
    <v>       0.66582289       0.72735934       0.70061830 </v>
    <v>       0.51376030       0.71942738       0.34631642 </v>
    <v>       0.46387567       0.51183698       0.66165149 </v>
    <v>       0.55386087       0.42220498       0.30258717 </v>
    <v>       0.52081493       0.23348038       0.63397909 </v>
    <v>       0.59142226       0.16596984       0.44492141 </v>
    <v>       0.87587896       0.61601755       0.04247060 </v>
    <v>       0.60111699       0.79821788       0.03908760 </v>
    <v>       0.81970124       0.38613393       0.18122165 </v>
    <v>       0.58469289       0.37015460       0.98278993 </v>
    <v>       0.26909059       0.36793309       0.93910935 </v>
    <v>       0.11000698       0.64194078       0.98723089 </v>
    <v>       0.16404009       0.26243422       0.67559898 </v>
    <v>       0.80903869       0.34044564       0.47412492 </v>
    <v>       0.01229366       0.07605493       0.52471295 </v>
    <v>       0.80646747       0.90430125       0.52022802 </v>
    <v>       0.35898599       0.79505318       0.51831108 </v>
    <v>       0.32664465       0.22041791       0.45631687 </v>
    <v>       0.53049133       0.03342336       0.82366660 </v>
    <v>       0.94983457       0.70207159       0.04289022 </v>
    <v>       0.68304345       0.75790220       0.01155973 </v>
    <v>       0.64624146       0.10062062       0.04891640 </v>
    <v>       0.97273982       0.11178521       0.90552710 </v>
    <v>       0.79018021       0.41993726       0.06519769 </v>
    <v>       0.12353388       0.93427522       0.90182326 </v>
    <v>       0.49781308       0.34049777       0.92417204 </v>
    <v>       0.22447340       0.26439232       0.89637628 </v>
    <v>       0.46489919       0.91844945       0.04186912 </v>
    <v>       0.19396328       0.60475312       0.96400030 </v>
    <v>       0.14974411       0.24380829       0.54596346 </v>
    <v>       0.89234854       0.32062885       0.42661348 </v>
    <v>       0.86322208       0.64522006       0.56427555 </v>
    <v>       0.20119809       0.66961835       0.46065659 </v>
    <v>       0.97874085       0.96306426       0.50318013 </v>
    <v>       0.34083249       0.48381428       0.43413373 </v>
    <v>       0.71030466       0.89314724       0.51003087 </v>
    <v>       0.44755836       0.80991564       0.57457773 </v>
    <v>       0.68506235       0.45571002       0.52249757 </v>
    <v>       0.39653239       0.16649415       0.41099229 </v>
   </varray>
  </structure>
  <varray name="forces" >
   <v>      -0.02833016      -0.00647469      -0.00542620 </v>
   <v>      -0.06232117       0.01696312      -0.01378155 </v>
   <v>       0.04827190       0.02717465       0.01988557 </v>
   <v>       0.05502394       0.03455844       0.03991469 </v>
   <v>      -0.00706096       0.00988864       0.00336125 </v>
   <v>       0.00069750       0.00908658       0.02495971 </v>
   <v>      -0.03139557      -0.07250042      -0.03933322 </v>
   <v>      -0.01624521      -0.04460693      -0.06555425 </v>
   <v>       0.06572576      -0.00201172       0.06521294 </v>
   <v>       0.05840208       0.01562066      -0.03533204 </v>
   <v>       0.04473726       0.03935978      -0.05684765 </v>
   <v>       0.00281135      -0.00097860       0.03500954 </v>
   <v>      -0.00561622       0.04826200      -0.03000736 </v>
   <v>       0.02412444       0.02226543       0.04199439 </v>
   <v>       0.07907332       0.01663852      -0.01247841 </v>
   <v>       0.07233618       0.07749349      -0.05038540 </v>
   <v>       0.00730549      -0.06546593       0.03106924 </v>
   <v>       0.00817040       0.03237684      -0.03102094 </v>
   <v>      -0.01821065       0.07445330       0.03006753 </v>
   <v>      -0.05996581      -0.04675909      -0.00430792 </v>
   <v>      -0.00680936      -0.00344968       0.00532849 </v>
   <v>      -0.00643286      -0.01099440       0.01979683 </v>
   <v>       0.03034246      -0.02130017      -0.01022258 </v>
   <v>       0.05303589       0.05081768      -0.04294997 </v>
   <v>      -0.00669074       0.00520021       0.03041046 </v>
   <v>      -0.00574168       0.03747068       0.01223698 </v>
   <v>       0.01251913      -0.01213154       0.00716602 </v>
   <v>      -0.01786266      -0.01274791      -0.05847059 </v>
   <v>       0.01787634      -0.02583404       0.03109886 </v>
   <v>      -0.01201155       0.01286989      -0.02728066 </v>
   <v>      -0.00933504      -0.03145508      -0.00797584 </v>
   <v>      -0.01352885      -0.02153089       0.05945598 </v>
   <v>       0.00662986       0.01694975      -0.06486659 </v>
   <v>       0.01088944       0.01268247       0.02000960 </v>
   <v>      -0.00616316       0.00852519      -0.01668478 </v>
   <v>      -0.01034905       0.01359249       0.03656517 </v>
   <v>      -0.01340579       0.01904597       0.01061325 </v>
   <v>      -0.01617748      -0.00278568       0.02061420 </v>
   <v>       0.00663162      -0.01007977      -0.04793875 </v>
   <v>      -0.00630351      -0.00347014       0.01790156 </v>
   <v>      -0.01691531       0.01281637      -0.02249592 </v>
   <v>      -0.00638945      -0.03672360       0.00675355 </v>
   <v>       0.00769818      -0.01566639      -0.00238394 </v>
   <v>       0.03743924       0.00462271       0.00645019 </v>
   <v>      -0.01763978       0.01669653      -0.04800120 </v>
   <v>       0.01173097       0.01455479       0.05566962 </v>
   <v>       0.00855673       0.01152199      -0.00641067 </v>
   <v>       0.01682897      -0.00413252       0.00833794 </v>
   <v>      -0.02957192       0.02124612      -0.03957100 </v>
   <v>       0.00386786       0.00283721       0.01872282 </v>
   <v>      -0.01500579       0.02756417      -0.01447285 </v>
   <v>      -0.00019546      -0.01329556      -0.00785333 </v>
   <v>      -0.03824099      -0.00919326       0.00730948 </v>
   <v>       0.02829804      -0.01137312       0.04160589 </v>
   <v>       0.01740038      -0.00306234       0.03092556 </v>
   <v>       0.00136358       0.00126712       0.00342869 </v>
   <v>      -0.05534893       0.01803914       0.00555473 </v>
   <v>       0.01311677       0.00287209       0.02633015 </v>
   <v>      -0.06731620       0.01122677      -0.00607957 </v>
   <v>       0.01443933       0.03756569       0.00891961 </v>
   <v>       0.01843035       0.01725764       0.00182552 </v>
   <v>      -0.01667375      -0.00929771      -0.02050688 </v>
   <v>      -0.02207001      -0.01242587       0.02425041 </v>
   <v>       0.00265791       0.00844272       0.01731471 </v>
   <v>       0.07385601      -0.07097820      -0.01910770 </v>
   <v>      -0.00666535      -0.08014204       0.00959540 </v>
   <v>      -0.01015373       0.01415217       0.01883238 </v>
   <v>       0.03161160       0.07318543      -0.02762802 </v>
   <v>       0.01773689      -0.02131960      -0.04208611 </v>
   <v>      -0.04330087      -0.03074019      -0.00497613 </v>
   <v>       0.00256384       0.08234956       0.00025456 </v>
   <v>      -0.05354649       0.02491779      -0.01332760 </v>
   <v>      -0.01380615      -0.02203247      -0.00800729 </v>
   <v>       0.03292927      -0.07712201      -0.05155484 </v>
   <v>      -0.01346595      -0.05556440      -0.00020056 </v>
   <v>       0.00772013      -0.06492133      -0.02232489 </v>
   <v>      -0.00124135       0.00839353       0.05423677 </v>
   <v>       0.03448939       0.01576031       0.01225222 </v>
   <v>      -0.10677582      -0.01299326      -0.00424040 </v>
   <v>      -0.03406544       0.00449088       0.01797273 </v>
   <v>       0.01518559       0.07992240       0.00141554 </v>
   <v>      -0.00798800      -0.00197018       0.02414739 </v>
   <v>      -0.02375523      -0.05760816      -0.01181424 </v>
   <v>      -0.05860443      -0.09536580       0.02022910 </v>
  </varray>
  <varray name="stress" >
   <v>      -7.44713221      -0.44312715      -0.68121115 </v>
   <v>      -0.44312715      -6.93279878       1.02404455 </v>
   <v>      -0.68121109       1.02404461     -11.09250439 </v>
  </varray>
  <energy>
   <i name="e_fr_energy">   -501.22625709 </i>
   <i name="e_wo_entrp">   -501.22625709 </i>
   <i name="e_0_energy">   -501.22625709 </i>
   <i name="kinetic">      0.00022697 </i>
   <i name="lattice kinetic">      0.00000000 </i>
   <i name="nosepot">      0.00000000 </i>
   <i name="nosekinetic">      0.00000000 </i>
   <i name="total">   -501.22603012 </i>
  </energy>
  <time name="totalsc">    2.71    2.45</time>
 </calculation>
 <calculation>
  <scstep>
   <time name="dav">    0.45    0.45</time>
   <time name="total">    0.58    0.54</time>
   <energy>
    <i name="alphaZ">    401.66401064 </i>
    <i name="ewald">  -6161.19133801 </i>
    <i name="hartreedc">  -6318.45789700 </i>
    <i name="XCdc">   1018.93722401 </i>
    <i name="pawpsdc">  19777.28355888 </i>
    <i name="pawaedc"> -19834.96773035 </i>
    <i name="eentropy">     -0.00000000 </i>
    <i name="bandstr">  -2056.76598493 </i>
    <i name="atom">  12677.61814180 </i>
    <i name="e_fr_energy">   -495.88001497 </i>
    <i name="e_wo_entrp">   -495.88001497 </i>
    <i name="e_0_energy">   -495.88001497 </i>
   </energy>
  </scstep>
  <scstep>
   <time name="diag">    0.07    0.07</time>
   <time name="diis">    0.15    0.15</time>
   <time name="orth">    0.02    0.02</time>
   <time name="total">    0.32    0.29</time>
   <energy>
    <i name="alphaZ">    401.66401064 </i>
    <i name="ewald">  -6161.19133801 </i>
    <i name="hartreedc">  -6318.40367200 </i>
    <i name="XCdc">   1018.93380444 </i>
    <i name="pawpsdc">  19776.54745583 </i>
    <i name="pawaedc"> -19834.23067210 </i>
    <i name="eentropy">     -0.00000000 </i>
    <i name="bandstr">  -2056.81774648 </i>
    <i name="atom">  12677.61814180 </i>
    <i name="e_fr_energy">   -495.88001587 </i>
    <i name="e_wo_entrp">   -495.88001587 </i>
    <i name="e_0_energy">   -495.88001587 </i>
   </energy>
  </scstep>
  <structure>
   <crystal>
    <varray name="basis" >
     <v>      10.37457494      -0.62795935      -0.41877549 </v>
     <v>      -0.50314792       8.45796955       0.36598113 </v>
     <v>      -0.23498639      -0.59520086       7.66420649 </v>
    </varray>
    <i name="volume">    671.45219127 </i>
    <varray name="rec_basis" >
     <v>       0.09686685       0.00561504       0.00340602 </v>
     <v>       0.00753898       0.11827272       0.00941618 </v>
     <v>       0.00493284      -0.00534095       0.13021312 </v>
    </varray>
   </crystal>
   <varray name="positions" >
    <v>       0.01572541       0.97540585       0.98371633 </v>
    <v>       0.90583719       0.83744163       0.96167302 </v>
    <v>       0.78511804       0.88574475       0.04327181 </v>
    <v>       0.75193979       0.04116408       0.96655748 </v>
    <v>       0.87062377       0.16560801       0.99793671 </v>
    <v>       0.85149098       0.33082420       0.93782345 </v>
    <v>       0.52388062       0.05989376       0.96466303 </v>
    <v>       0.44186139       0.19541587       0.99331845 </v>
    <v>       0.30981565       0.14382909       0.89774616 </v>
    <v>       0.24897236       0.99383906       0.98333489 </v>
    <v>       0.33688814       0.86175687       0.96381838 </v>
    <v>       0.29574615       0.70857463       0.05642969 </v>
    <v>       0.23334383       0.51966724       0.52006687 </v>
    <v>       0.12244711       0.38788928       0.46734830 </v>
    <v>       0.99163039       0.43239888       0.51485781 </v>
    <v>       0.97059578       0.60238691       0.47254188 </v>
    <v>       0.08795042       0.72219381       0.53208069 </v>
    <v>       0.08521215       0.88516492       0.45498253 </v>
    <v>       0.73910056       0.61509291       0.48199409 </v>
    <v>       0.66063156       0.73819087       0.55738491 </v>
    <v>       0.51948098       0.70199125       0.48852996 </v>
    <v>       0.46834253       0.52826389       0.52023034 </v>
    <v>       0.55464350       0.41201950       0.44579130 </v>
    <v>       0.51806887       0.23762004       0.49070918 </v>
    <v>       0.04213063       0.00487972       0.12396261 </v>
    <v>       0.88392538       0.81134119       0.82092284 </v>
    <v>       0.80673022       0.90831999       0.18557724 </v>
    <v>       0.72731884       0.02408766       0.82469632 </v>
    <v>       0.89956818       0.17639727       0.13975727 </v>
    <v>       0.78995088       0.32687098       0.81565790 </v>
    <v>       0.94817849       0.39308238       0.91658293 </v>
    <v>       0.43077174       0.20989911       0.13445799 </v>
    <v>       0.32432289       0.11115394       0.76044265 </v>
    <v>       0.24063148       0.02135474       0.12303021 </v>
    <v>       0.34389767       0.83266676       0.82405193 </v>
    <v>       0.27068033       0.73596145       0.18958674 </v>
    <v>       0.38090963       0.64321831       0.06685853 </v>
    <v>       0.25418265       0.52899009       0.66337103 </v>
    <v>       0.12172704       0.36626609       0.32526474 </v>
    <v>       0.98790975       0.42366691       0.65729755 </v>
    <v>       0.95034137       0.61135605       0.33097266 </v>
    <v>       0.10018354       0.73205842       0.67544651 </v>
    <v>       0.08198465       0.86602889       0.31218124 </v>
    <v>       0.17714756       0.95851154       0.49665405 </v>
    <v>       0.74087808       0.62276386       0.33853347 </v>
    <v>       0.66582981       0.72737067       0.70065456 </v>
    <v>       0.51376454       0.71943405       0.34631208 </v>
    <v>       0.46388366       0.51183562       0.66165732 </v>
    <v>       0.55384685       0.42221433       0.30256013 </v>
    <v>       0.52081715       0.23348298       0.63399144 </v>
    <v>       0.59141546       0.16598473       0.44491130 </v>
    <v>       0.87587827       0.61600943       0.04246599 </v>
    <v>       0.60109812       0.79821185       0.03909178 </v>
    <v>       0.81971527       0.38612991       0.18125035 </v>
    <v>       0.58470214       0.37015506       0.98281041 </v>
    <v>       0.26909138       0.36793407       0.93911157 </v>
    <v>       0.10998023       0.64194996       0.98723300 </v>
    <v>       0.16404683       0.26243763       0.67561656 </v>
    <v>       0.80900607       0.34044949       0.47411982 </v>
    <v>       0.01230200       0.07607870       0.52471824 </v>
    <v>       0.80647711       0.90431201       0.52022921 </v>
    <v>       0.35897694       0.79504615       0.51829756 </v>
    <v>       0.32663393       0.22041134       0.45633222 </v>
    <v>       0.53049308       0.03342922       0.82367783 </v>
    <v>       0.94983661       0.70206916       0.04288971 </v>
    <v>       0.68304316       0.75789932       0.01156023 </v>
    <v>       0.64624121       0.10062113       0.04891711 </v>
    <v>       0.97274085       0.11178780       0.90552595 </v>
    <v>       0.79018064       0.41993643       0.06519602 </v>
    <v>       0.12353257       0.93427399       0.90182306 </v>
    <v>       0.49781328       0.34050070       0.92417191 </v>
    <v>       0.22447188       0.26439303       0.89637564 </v>
    <v>       0.46489875       0.91844860       0.04186883 </v>
    <v>       0.19396415       0.60475027       0.96399843 </v>
    <v>       0.14974363       0.24380625       0.54596350 </v>
    <v>       0.89234870       0.32062646       0.42661269 </v>
    <v>       0.86322211       0.64522050       0.56427768 </v>
    <v>       0.20119916       0.66961902       0.46065711 </v>
    <v>       0.97873767       0.96306345       0.50317982 </v>
    <v>       0.34083155       0.48381441       0.43413439 </v>
    <v>       0.71030525       0.89315013       0.51003083 </v>
    <v>       0.44755819       0.80991562       0.57457868 </v>
    <v>       0.68506154       0.45570787       0.52249717 </v>
    <v>       0.39653056       0.16649063       0.41099315 </v>
   </varray>
  </structure>
  <varray name="forces" >
[...]
       <r>    -8.9964     0.1189    84.0044 </r>
       <r>    -8.8792    11.5437    85.3574 </r>
       <r>    -8.7620     6.4869    86.1178 </r>
       <r>    -8.6447    15.3772    87.9202 </r>
       <r>    -8.5275     0.6809    88.0000 </r>
       <r>    -8.4103     0.0011    88.0001 </r>
       <r>    -8.2931     5.1597    88.6049 </r>
       <r>    -8.1759    21.3929    91.1124 </r>
       <r>    -8.0587    24.9674    94.0389 </r>
       <r>    -7.9415    16.5458    95.9783 </r>
       <r>    -7.8242    25.3857    98.9539 </r>
       <r>    -7.7070     9.7111   100.0921 </r>
       <r>    -7.5898    15.6230   101.9234 </r>
       <r>    -7.4726    15.5793   103.7494 </r>
       <r>    -7.3554    26.2723   106.8289 </r>
       <r>    -7.2382    16.0411   108.7091 </r>
       <r>    -7.1210    30.6538   112.3021 </r>
       <r>    -7.0038    28.4713   115.6394 </r>
       <r>    -6.8865     8.9472   116.6881 </r>
       <r>    -6.7693    27.5081   119.9124 </r>
       <r>    -6.6521    17.2990   121.9401 </r>
       <r>    -6.5349    11.8557   123.3297 </r>
       <r>    -6.4177    27.3730   126.5382 </r>
       <r>    -6.3005    15.8100   128.3913 </r>
       <r>    -6.1833    28.8552   131.7735 </r>
       <r>    -6.0661     7.0605   132.6011 </r>
       <r>    -5.9488    15.2131   134.3843 </r>
       <r>    -5.8316    13.6697   135.9865 </r>
       <r>    -5.7144     7.9816   136.9221 </r>
       <r>    -5.5972    11.3515   138.2526 </r>
       <r>    -5.4800    14.7962   139.9869 </r>
       <r>    -5.3628    16.8356   141.9603 </r>
       <r>    -5.2456    18.1563   144.0885 </r>
       <r>    -5.1283    22.2593   146.6975 </r>
       <r>    -5.0111    18.6672   148.8856 </r>
       <r>    -4.8939    22.7700   151.5545 </r>
       <r>    -4.7767    31.7001   155.2702 </r>
       <r>    -4.6595    34.3907   159.3012 </r>
       <r>    -4.5423     6.8553   160.1047 </r>
       <r>    -4.4251    28.3311   163.4255 </r>
       <r>    -4.3079    18.4061   165.5829 </r>
       <r>    -4.1906    17.7861   167.6677 </r>
       <r>    -4.0734    14.5657   169.3750 </r>
       <r>    -3.9562    20.6011   171.7897 </r>
       <r>    -3.8390    15.6390   173.6228 </r>
       <r>    -3.7218     6.4245   174.3758 </r>
       <r>    -3.6046    30.3535   177.9337 </r>
       <r>    -3.4874    27.7110   181.1818 </r>
       <r>    -3.3702    34.1538   185.1850 </r>
       <r>    -3.2529    19.1903   187.4344 </r>
       <r>    -3.1357    24.5438   190.3112 </r>
       <r>    -3.0185    14.3456   191.9927 </r>
       <r>    -2.9013    15.4792   193.8071 </r>
       <r>    -2.7841    26.6213   196.9275 </r>
       <r>    -2.6669    33.0578   200.8023 </r>
       <r>    -2.5497    20.7369   203.2329 </r>
       <r>    -2.4324    39.2516   207.8337 </r>
       <r>    -2.3152    30.1889   211.3722 </r>
       <r>    -2.1980     5.4182   212.0073 </r>
       <r>    -2.0808    12.5685   213.4805 </r>
       <r>    -1.9636    15.2955   215.2733 </r>
       <r>    -1.8464    18.1981   217.4064 </r>
       <r>    -1.7292    20.8749   219.8532 </r>
       <r>    -1.6120    15.3083   221.6475 </r>
       <r>    -1.4947    28.7289   225.0149 </r>
       <r>    -1.3775    27.7871   228.2719 </r>
       <r>    -1.2603    15.1581   230.0487 </r>
       <r>    -1.1431    25.0434   232.9841 </r>
       <r>    -1.0259    19.6164   235.2834 </r>
       <r>    -0.9087    30.1971   238.8229 </r>
       <r>    -0.7915    28.2173   242.1303 </r>
       <r>    -0.6743    28.6101   245.4838 </r>
       <r>    -0.5570     6.1512   246.2048 </r>
       <r>    -0.4398    19.4574   248.4854 </r>
       <r>    -0.3226    24.2612   251.3292 </r>
       <r>    -0.2054    25.5445   254.3233 </r>
       <r>    -0.0882    14.2058   255.9884 </r>
       <r>     0.0290     0.0987   256.0000 </r>
       <r>     0.1462     0.0000   256.0000 </r>
       <r>     0.2635     0.0000   256.0000 </r>
       <r>     0.3807     0.0000   256.0000 </r>
       <r>     0.4979     0.0000   256.0000 </r>
       <r>     0.6151     0.0000   256.0000 </r>
       <r>     0.7323     0.0000   256.0000 </r>
       <r>     0.8495     0.0000   256.0000 </r>
       <r>     0.9667     0.0000   256.0000 </r>
       <r>     1.0839     0.0000   256.0000 </r>
       <r>     1.2012     0.0000   256.0000 </r>
       <r>     1.3184     0.0000   256.0000 </r>
       <r>     1.4356     0.0000   256.0000 </r>
       <r>     1.5528     0.0000   256.0000 </r>
       <r>     1.6700     0.0000   256.0000 </r>
       <r>     1.7872     0.0000   256.0000 </r>
       <r>     1.9044     0.0000   256.0000 </r>
       <r>     2.0216     0.0000   256.0000 </r>
       <r>     2.1389     0.0000   256.0000 </r>
       <r>     2.2561     0.0000   256.0000 </r>
       <r>     2.3733     0.0000   256.0000 </r>
       <r>     2.4905     0.0000   256.0000 </r>
       <r>     2.6077     0.0000   256.0000 </r>
       <r>     2.7249     0.0000   256.0000 </r>
       <r>     2.8421     0.0000   256.0000 </r>
       <r>     2.9593     0.0000   256.0000 </r>
       <r>     3.0766     0.0000   256.0000 </r>
       <r>     3.1938     0.0000   256.0000 </r>
       <r>     3.3110     0.0000   256.0000 </r>
       <r>     3.4282     0.0000   256.0000 </r>
       <r>     3.5454     0.0000   256.0000 </r>
       <r>     3.6626     0.0000   256.0000 </r>
       <r>     3.7798     0.0000   256.0000 </r>
       <r>     3.8971     0.0000   256.0000 </r>
       <r>     4.0143     0.0000   256.0000 </r>
       <r>     4.1315     0.0000   256.0000 </r>
       <r>     4.2487     0.0000   256.0000 </r>
       <r>     4.3659     0.0000   256.0000 </r>
       <r>     4.4831     0.0000   256.0000 </r>
       <r>     4.6003     0.0000   256.0000 </r>
       <r>     4.7175     0.0000   256.0000 </r>
       <r>     4.8348     0.0000   256.0000 </r>
       <r>     4.9520     0.0000   256.0000 </r>
       <r>     5.0692     0.0075   256.0009 </r>
       <r>     5.1864     8.4769   256.9945 </r>
       <r>     5.3036    19.9979   259.3385 </r>
       <r>     5.4208    19.1377   261.5817 </r>
       <r>     5.5380     3.5685   262.0000 </r>
       <r>     5.6552     0.0005   262.0000 </r>
       <r>     5.7725     3.0620   262.3589 </r>
       <r>     5.8897    19.4507   264.6388 </r>
       <r>     6.0069    11.5780   265.9959 </r>
       <r>     6.1241     2.8530   266.3303 </r>
       <r>     6.2413    20.7494   268.7624 </r>
       <r>     6.3585    10.5382   269.9976 </r>
       <r>     6.4757     1.0937   270.1258 </r>
       <r>     6.5930    16.3111   272.0377 </r>
       <r>     6.7102    16.9097   274.0197 </r>
       <r>     6.8274    27.3356   277.2238 </r>
       <r>     6.9446    19.5743   279.5182 </r>
       <r>     7.0618    17.6137   281.5827 </r>
       <r>     7.1790     3.8438   282.0333 </r>
       <r>     7.2962    20.8955   284.4825 </r>
       <r>     7.4134    29.0265   287.8848 </r>
       <r>     7.5307    30.2646   291.4322 </r>
       <r>     7.6479     5.6622   292.0959 </r>
       <r>     7.7651    20.4241   294.4899 </r>
       <r>     7.8823    14.7110   296.2142 </r>
       <r>     7.9995    29.4267   299.6634 </r>
       <r>     8.1167    17.3428   301.6962 </r>
       <r>     8.2339    20.0594   304.0474 </r>
       <r>     8.3511    30.4675   307.6186 </r>
       <r>     8.4684    24.0109   310.4330 </r>
       <r>     8.5856    25.5217   313.4244 </r>
       <r>     8.7028    19.6997   315.7335 </r>
       <r>     8.8200    32.0860   319.4944 </r>
       <r>     8.9372    18.8923   321.7088 </r>
       <r>     9.0544    19.8536   324.0359 </r>
       <r>     9.1716    24.3751   326.8930 </r>
       <r>     9.2889    26.2522   329.9701 </r>
       <r>     9.4061    15.4036   331.7756 </r>
       <r>     9.5233    20.4537   334.1731 </r>
       <r>     9.6405    15.4128   335.9796 </r>
       <r>     9.7577    21.5627   338.5071 </r>
       <r>     9.8749    14.6635   340.2258 </r>
       <r>     9.9921    14.8389   341.9651 </r>
       <r>    10.1093     0.2976   342.0000 </r>
       <r>    10.2266     0.0000   342.0000 </r>
       <r>    10.3438     0.0000   342.0000 </r>
       <r>    10.4610     0.0000   342.0000 </r>
       <r>    10.5782     0.0000   342.0000 </r>
       <r>    10.6954     0.0000   342.0000 </r>
       <r>    10.8126     0.0000   342.0000 </r>
       <r>    10.9298     0.0000   342.0000 </r>
       <r>    11.0470     0.0000   342.0000 </r>
       <r>    11.1643     0.0000   342.0000 </r>
       <r>    11.2815     0.0000   342.0000 </r>
       <r>    11.3987     0.0000   342.0000 </r>
       <r>    11.5159     0.0000   342.0000 </r>
      </set>
     </set>
    </array>
   </total>
  </dos>
 </calculation>
 <structure name="finalpos" >
  <crystal>
   <varray name="basis" >
    <v>      10.37457494      -0.62795935      -0.41877549 </v>
    <v>      -0.50314792       8.45796955       0.36598113 </v>
    <v>      -0.23498639      -0.59520086       7.66420649 </v>
   </varray>
   <i name="volume">    671.45219127 </i>
   <varray name="rec_basis" >
    <v>       0.09686685       0.00561504       0.00340602 </v>
    <v>       0.00753898       0.11827272       0.00941618 </v>
    <v>       0.00493284      -0.00534095       0.13021312 </v>
   </varray>
  </crystal>
  <varray name="positions" >
   <v>       0.01570041       0.97540152       0.98372472 </v>
   <v>       0.90578107       0.83745950       0.96166104 </v>
   <v>       0.78516375       0.88577905       0.04330486 </v>
   <v>       0.75198767       0.04120627       0.96657519 </v>
   <v>       0.87062248       0.16561920       0.99795672 </v>
   <v>       0.85147804       0.33082853       0.93784197 </v>
   <v>       0.52384745       0.05980515       0.96462664 </v>
   <v>       0.44183986       0.19536066       0.99327160 </v>
   <v>       0.30988146       0.14383328       0.89779327 </v>
   <v>       0.24902769       0.99386130       0.98330095 </v>
   <v>       0.33692949       0.86179750       0.96373964 </v>
   <v>       0.29573651       0.70858946       0.05649303 </v>
   <v>       0.23334110       0.51972012       0.52003757 </v>
   <v>       0.12247412       0.38791375       0.46737069 </v>
   <v>       0.99170169       0.43242246       0.51485229 </v>
   <v>       0.97066338       0.60247683       0.47246148 </v>
   <v>       0.08795632       0.72212293       0.53212658 </v>
   <v>       0.08523324       0.88520641       0.45495279 </v>
   <v>       0.73908997       0.61518403       0.48200335 </v>
   <v>       0.66057665       0.73813725       0.55741272 </v>
   <v>       0.51947431       0.70198836       0.48853543 </v>
   <v>       0.46833803       0.52825100       0.52025970 </v>
   <v>       0.55466649       0.41200118       0.44575647 </v>
   <v>       0.51811234       0.23768586       0.49066522 </v>
   <v>       0.04203765       0.00494016       0.12422702 </v>
   <v>       0.88387148       0.81182082       0.82096705 </v>
   <v>       0.80685994       0.90817177       0.18566328 </v>
   <v>       0.72717313       0.02388711       0.82424297 </v>
   <v>       0.89971536       0.17609241       0.14003511 </v>
   <v>       0.78990412       0.32700094       0.81542325 </v>
   <v>       0.94814750       0.39270783       0.91646579 </v>
   <v>       0.43066302       0.20961137       0.13493566 </v>
   <v>       0.32435167       0.11140230       0.75986753 </v>
   <v>       0.24077902       0.02152733       0.12317272 </v>
   <v>       0.34383186       0.83277028       0.82385737 </v>
   <v>       0.27062602       0.73614043       0.18987852 </v>
   <v>       0.38086096       0.64340507       0.06702271 </v>
   <v>       0.25399318       0.52895832       0.66354312 </v>
   <v>       0.12177839       0.36614051       0.32490452 </v>
   <v>       0.98785741       0.42365506       0.65742997 </v>
   <v>       0.95018080       0.61148869       0.33076812 </v>
   <v>       0.10009187       0.73155505       0.67554324 </v>
   <v>       0.08205948       0.86582639       0.31216982 </v>
   <v>       0.17741577       0.95850543       0.49669772 </v>
   <v>       0.74067053       0.62291433       0.33812117 </v>
   <v>       0.66596726       0.72764792       0.70114360 </v>
   <v>       0.51386947       0.71958093       0.34627215 </v>
   <v>       0.46406674       0.51180754       0.66175555 </v>
   <v>       0.55352657       0.42241828       0.30219585 </v>
   <v>       0.52088316       0.23354968       0.63411577 </v>
   <v>       0.59134193       0.16624885       0.44461669 </v>
   <v>       0.87591049       0.61585241       0.04234945 </v>
   <v>       0.60086681       0.79798474       0.03912554 </v>
   <v>       0.81996004       0.38616408       0.18150000 </v>
   <v>       0.58473946       0.37010709       0.98318509 </v>
   <v>       0.26909248       0.36794169       0.93915701 </v>
   <v>       0.10972453       0.64200293       0.98717594 </v>
   <v>       0.16419244       0.26248440       0.67582105 </v>
   <v>       0.80859792       0.34050732       0.47380011 </v>
   <v>       0.01239268       0.07627446       0.52476954 </v>
   <v>       0.80658141       0.90454208       0.52024753 </v>
   <v>       0.35892358       0.79490645       0.51808442 </v>
   <v>       0.32648605       0.22015282       0.45664707 </v>
   <v>       0.53054198       0.03352372       0.82379809 </v>
   <v>       0.94988465       0.70200549       0.04287180 </v>
   <v>       0.68302431       0.75783254       0.01157812 </v>
   <v>       0.64623487       0.10063356       0.04893396 </v>
   <v>       0.97276705       0.11185293       0.90549804 </v>
   <v>       0.79020008       0.41990784       0.06518340 </v>
   <v>       0.12350068       0.93424391       0.90182125 </v>
   <v>       0.49783013       0.34057643       0.92418144 </v>
   <v>       0.22443504       0.26441190       0.89636119 </v>
   <v>       0.46488798       0.91842633       0.04185967 </v>
   <v>       0.19396181       0.60468859       0.96395945 </v>
   <v>       0.14973317       0.24375811       0.54598066 </v>
   <v>       0.89233037       0.32057092       0.42660455 </v>
   <v>       0.86322315       0.64523154       0.56432871 </v>
   <v>       0.20122600       0.66963636       0.46067062 </v>
   <v>       0.97866776       0.96306899       0.50317519 </v>
   <v>       0.34080874       0.48381802       0.43415387 </v>
   <v>       0.71032592       0.89322291       0.51003033 </v>
   <v>       0.44754200       0.80991212       0.57459482 </v>
   <v>       0.68504204       0.45565400       0.52248302 </v>
   <v>       0.39647799       0.16640718       0.41102254 </v>
  </varray>
  <varray name="velocities" >
   <v>      -0.00000428       0.00000007       0.00000370 </v>
   <v>      -0.00000991       0.00000379      -0.00000096 </v>
   <v>       0.00000791       0.00000585       0.00000698 </v>
   <v>       0.00000764       0.00000693      -0.00000124 </v>
   <v>       0.00000037       0.00000203       0.00000580 </v>
   <v>      -0.00000432      -0.00000036       0.00000166 </v>
   <v>      -0.00000576      -0.00001591      -0.00000516 </v>
   <v>      -0.00000412      -0.00000954      -0.00000396 </v>
   <v>       0.00001207       0.00000034       0.00000316 </v>
   <v>       0.00001008       0.00000452      -0.00000515 </v>
   <v>       0.00000728       0.00000696      -0.00001526 </v>
   <v>      -0.00000361       0.00000443       0.00001381 </v>
   <v>      -0.00000044       0.00000966      -0.00000379 </v>
   <v>       0.00000512       0.00000348      -0.00000006 </v>
   <v>       0.00001228       0.00000427      -0.00000020 </v>
   <v>       0.00001173       0.00001629      -0.00001682 </v>
   <v>       0.00000128      -0.00001262       0.00000865 </v>
   <v>       0.00000542       0.00000830      -0.00000384 </v>
   <v>      -0.00000176       0.00001710      -0.00000148 </v>
   <v>      -0.00000932      -0.00000881       0.00000963 </v>
   <v>      -0.00000126      -0.00000033       0.00000089 </v>
   <v>      -0.00000063      -0.00000255       0.00000582 </v>
   <v>       0.00000348      -0.00000250      -0.00000971 </v>
   <v>       0.00000677       0.00001289      -0.00000682 </v>
   <v>      -0.00002108       0.00000580       0.00002215 </v>
   <v>      -0.00001215       0.00007997      -0.00000691 </v>
   <v>       0.00002225      -0.00002655       0.00001043 </v>
   <v>      -0.00001458      -0.00002872      -0.00002425 </v>
   <v>       0.00001960      -0.00005438       0.00002048 </v>
   <v>       0.00000329       0.00002237      -0.00001675 </v>
   <v>       0.00000696      -0.00005740      -0.00002217 </v>
   <v>      -0.00001495      -0.00005729       0.00002914 </v>
   <v>       0.00000123       0.00005534      -0.00004818 </v>
   <v>       0.00002772       0.00002670       0.00000443 </v>
   <v>      -0.00001103       0.00001983      -0.00002625 </v>
   <v>      -0.00000522       0.00002735       0.00002008 </v>
   <v>       0.00000196       0.00002388       0.00003281 </v>
   <v>      -0.00003580      -0.00000578       0.00001318 </v>
   <v>       0.00000951      -0.00001471      -0.00001796 </v>
   <v>      -0.00000744       0.00000114       0.00000525 </v>
   <v>      -0.00002467       0.00002359      -0.00001679 </v>
   <v>      -0.00001627      -0.00009054       0.00001404 </v>
   <v>       0.00001314      -0.00003505      -0.00000008 </v>
   <v>       0.00002711      -0.00001489      -0.00000170 </v>
   <v>      -0.00003736       0.00002583      -0.00002927 </v>
   <v>       0.00002091       0.00005032       0.00004115 </v>
   <v>       0.00001937       0.00002483       0.00000083 </v>
   <v>       0.00003184      -0.00000436       0.00001226 </v>
   <v>      -0.00005543       0.00003396      -0.00003015 </v>
   <v>       0.00001400       0.00001244       0.00000098 </v>
   <v>      -0.00000254       0.00003645      -0.00005950 </v>
   <v>       0.00001197      -0.00002370      -0.00002201 </v>
   <v>      -0.00001696      -0.00004952      -0.00000103 </v>
   <v>       0.00003461       0.00002079      -0.00000342 </v>
   <v>      -0.00001310      -0.00001465       0.00005540 </v>
   <v>      -0.00000218      -0.00000048       0.00000738 </v>
   <v>      -0.00000344      -0.00000892      -0.00002231 </v>
   <v>       0.00002442       0.00000417       0.00001106 </v>
   <v>      -0.00003078       0.00000764      -0.00007979 </v>
   <v>       0.00000405      -0.00000518       0.00000126 </v>
   <v>       0.00000455       0.00003797       0.00000235 </v>
   <v>       0.00000768      -0.00002183      -0.00002628 </v>
   <v>      -0.00001527      -0.00005840       0.00005196 </v>
   <v>       0.00000953       0.00001102       0.00000318 </v>
   <v>       0.00000859      -0.00001221      -0.00000413 </v>
   <v>      -0.00000474      -0.00001195       0.00000398 </v>
   <v>      -0.00000123       0.00000222       0.00000300 </v>
   <v>       0.00000495       0.00001218      -0.00000511 </v>
   <v>       0.00000465      -0.00000614       0.00000090 </v>
   <v>      -0.00000579      -0.00000554       0.00000016 </v>
   <v>       0.00000445       0.00001426       0.00000344 </v>
   <v>      -0.00000669       0.00000360      -0.00000250 </v>
   <v>      -0.00000198      -0.00000432      -0.00000198 </v>
   <v>      -0.00000295      -0.00001039      -0.00000634 </v>
   <v>      -0.00000175      -0.00000865       0.00000515 </v>
   <v>      -0.00000587      -0.00000986      -0.00000026 </v>
   <v>       0.00000018       0.00000203       0.00000917 </v>
   <v>       0.00000506       0.00000335       0.00000257 </v>
   <v>      -0.00001192       0.00000380      -0.00000065 </v>
   <v>      -0.00000406       0.00000074       0.00000409 </v>
   <v>       0.00000448       0.00001365      -0.00000002 </v>
   <v>      -0.00000435      -0.00000103       0.00000208 </v>
   <v>      -0.00000358      -0.00001003      -0.00000331 </v>
   <v>      -0.00001049      -0.00001515       0.00000648 </v>
  </varray>
 </structure>
</modeling>
