unknown system                          
            1
    10.374575   -0.627959   -0.418775
    -0.503148    8.457970    0.365981
    -0.234986   -0.595201    7.664206
   C    H    O 
    24    40    20
Direct configuration=     1
   0.01572712  0.97540654  0.98371690
   0.90584085  0.83744082  0.96167441
   0.78511502  0.88574245  0.04327020
   0.75193630  0.04116114  0.96655404
   0.87062417  0.16560739  0.99793659
   0.85149073  0.33082340  0.93782142
   0.52388278  0.05989939  0.96466608
   0.44186261  0.19541960  0.99332373
   0.30981163  0.14382857  0.89774055
   0.24896892  0.99383792  0.98333761
   0.33688546  0.86175414  0.96382284
   0.29574580  0.70857454  0.05642700
   0.23334405  0.51966397  0.52006946
   0.12244551  0.38788728  0.46734476
   0.99162566  0.43239737  0.51485865
   0.97059132  0.60238129  0.47254580
   0.08795014  0.72219832  0.53207798
   0.08521165  0.88516280  0.45498513
   0.73910131  0.61508749  0.48199185
   0.66063527  0.73819457  0.55738545
   0.51948133  0.70199151  0.48852954
   0.46834290  0.52826458  0.52022878
   0.55464177  0.41202098  0.44579179
   0.51806559  0.23761646  0.49071263
   0.04213419  0.00487340  0.12393296
   0.88392751  0.81130796  0.82091201
   0.80672163  0.90832931  0.18556932
   0.72733402  0.02410404  0.82475470
   0.89955554  0.17641658  0.13972482
   0.78996014  0.32686241  0.81568596
   0.94818732  0.39311126  0.91658952
   0.43078089  0.20991416  0.13439831
   0.32431884  0.11114400  0.76050733
   0.24062275  0.02134168  0.12301036
   0.34390210  0.83266097  0.82406869
   0.27068639  0.73594741  0.18955118
   0.38091859  0.64320132  0.06684975
   0.25419360  0.52899197  0.66335117
   0.12172395  0.36627811  0.32531166
   0.98791395  0.42366910  0.65727989
   0.95035351  0.61134736  0.33099595
   0.10018943  0.73208999  0.67543884
   0.08197987  0.86604217  0.31218257
   0.17711971  0.95850434  0.49664626
   0.74089110  0.62275355  0.33858230
   0.66581937  0.72735364  0.70059948
   0.51375816  0.71942399  0.34631870
   0.46387163  0.51183765  0.66164854
   0.55386796  0.42220024  0.30260116
   0.52081381  0.23347908  0.63397263
   0.59142581  0.16596222  0.44492644
   0.87587936  0.61602169  0.04247291
   0.60112687  0.79822075  0.03908537
   0.81969401  0.38613616  0.18120651
   0.58468793  0.37015427  0.98277941
   0.26909017  0.36793258  0.93910821
   0.11002109  0.64193587  0.98722965
   0.16403668  0.26243247  0.67558980
   0.80905569  0.34044363  0.47412717
   0.01228928  0.07604234  0.52471015
   0.80646239  0.90429579  0.52022741
   0.35899086  0.79505679  0.51831809
   0.32665024  0.22042109  0.45630904
   0.53049047  0.03342035  0.82366073
   0.94983355  0.70207280  0.04289048
   0.68304358  0.75790364  0.01155948
   0.64624159  0.10062037  0.04891605
   0.97273930  0.11178393  0.90552768
   0.79018001  0.41993766  0.06519857
   0.12353455  0.93427583  0.90182336
   0.49781300  0.34049631  0.92417212
   0.22447415  0.26439196  0.89637661
   0.46489940  0.91844987  0.04186927
   0.19396281  0.60475456  0.96400125
   0.14974435  0.24380932  0.54596346
   0.89234844  0.32063005  0.42661389
   0.86322208  0.64521983  0.56427448
   0.20119754  0.66961801  0.46065632
   0.97874246  0.96306470  0.50318029
   0.34083296  0.48381421  0.43413339
   0.71030438  0.89314579  0.51003090
   0.44755843  0.80991566  0.57457724
   0.68506276  0.45571109  0.52249778
   0.39653330  0.16649593  0.41099186
Direct configuration=     2
   0.01572654  0.97540630  0.98371669
   0.90583962  0.83744109  0.96167393
   0.78511604  0.88574323  0.04327073
   0.75193747  0.04116212  0.96655523
   0.87062403  0.16560759  0.99793661
   0.85149083  0.33082367  0.93782211
   0.52388206  0.05989750  0.96466504
   0.44186220  0.19541834  0.99332193
   0.30981298  0.14382875  0.89774247
   0.24897007  0.99383830  0.98333669
   0.33688636  0.86175506  0.96382135
   0.29574593  0.70857456  0.05642789
   0.23334397  0.51966506  0.52006858
   0.12244605  0.38788796  0.46734597
   0.99162725  0.43239788  0.51485836
   0.97059282  0.60238318  0.47254450
   0.08795023  0.72219681  0.53207889
   0.08521181  0.88516350  0.45498424
   0.73910106  0.61508931  0.48199262
   0.66063402  0.73819332  0.55738524
   0.51948122  0.70199142  0.48852968
   0.46834277  0.52826435  0.52022930
   0.55464235  0.41202048  0.44579165
   0.51806670  0.23761765  0.49071147
   0.04213303  0.00487553  0.12394308
   0.88392681  0.81131915  0.82091578
   0.80672451  0.90832618  0.18557200
   0.72732884  0.02409850  0.82473472
   0.89955981  0.17641010  0.13973588
   0.78995694  0.32686528  0.81567637
   0.94818424  0.39310148  0.91658733
   0.43077780  0.20990916  0.13441875
   0.32432024  0.11114723  0.76048525
   0.24062568  0.02134608  0.12301716
   0.34390061  0.83266290  0.82406302
   0.27068432  0.73595217  0.18956336
   0.38091550  0.64320710  0.06685267
   0.25418995  0.52899134  0.66335794
   0.12172498  0.36627402  0.32529562
   0.98791253  0.42366836  0.65728592
   0.95034942  0.61135029  0.33098802
   0.10018745  0.73207943  0.67544141
   0.08198147  0.86603772  0.31218213
   0.17712920  0.95850687  0.49664894
   0.74088673  0.62275703  0.33856563
   0.66582289  0.72735934  0.70061830
   0.51376030  0.71942738  0.34631642
   0.46387567  0.51183698  0.66165149
   0.55386087  0.42220498  0.30258717
   0.52081493  0.23348038  0.63397909
   0.59142226  0.16596984  0.44492141
   0.87587896  0.61601755  0.04247060
   0.60111699  0.79821788  0.03908760
   0.81970124  0.38613393  0.18122165
   0.58469289  0.37015460  0.98278993
   0.26909059  0.36793309  0.93910935
   0.11000698  0.64194078  0.98723089
   0.16404009  0.26243422  0.67559898
   0.80903869  0.34044564  0.47412492
   0.01229366  0.07605493  0.52471295
   0.80646747  0.90430125  0.52022802
   0.35898599  0.79505318  0.51831108
   0.32664465  0.22041791  0.45631687
   0.53049133  0.03342336  0.82366660
   0.94983457  0.70207159  0.04289022
   0.68304345  0.75790220  0.01155973
   0.64624146  0.10062062  0.04891640
   0.97273982  0.11178521  0.90552710
   0.79018021  0.41993726  0.06519769
   0.12353388  0.93427522  0.90182326
   0.49781308  0.34049777  0.92417204
   0.22447340  0.26439232  0.89637628
   0.46489919  0.91844945  0.04186912
   0.19396328  0.60475312  0.96400030
   0.14974411  0.24380829  0.54596346
   0.89234854  0.32062885  0.42661348
   0.86322208  0.64522006  0.56427555
   0.20119809  0.66961835  0.46065659
   0.97874085  0.96306426  0.50318013
   0.34083249  0.48381428  0.43413373
   0.71030466  0.89314724  0.51003087
   0.44755836  0.80991564  0.57457773
   0.68506235  0.45571002  0.52249757
   0.39653239  0.16649415  0.41099229
Direct configuration=     3
   0.01572541  0.97540585  0.98371633
   0.90583719  0.83744163  0.96167302
   0.78511804  0.88574475  0.04327181
   0.75193979  0.04116408  0.96655748
   0.87062377  0.16560801  0.99793671
   0.85149098  0.33082420  0.93782345
   0.52388062  0.05989376  0.96466303
   0.44186139  0.19541587  0.99331845
   0.30981565  0.14382909  0.89774616
   0.24897236  0.99383906  0.98333489
   0.33688814  0.86175687  0.96381838
   0.29574615  0.70857463  0.05642969
   0.23334383  0.51966724  0.52006687
   0.12244711  0.38788928  0.46734830
   0.99163039  0.43239888  0.51485781
   0.97059578  0.60238691  0.47254188
   0.08795042  0.72219381  0.53208069
   0.08521215  0.88516492  0.45498253
   0.73910056  0.61509291  0.48199409
   0.66063156  0.73819087  0.55738491
   0.51948098  0.70199125  0.48852996
   0.46834253  0.52826389  0.52023034
   0.55464350  0.41201950  0.44579130
   0.51806887  0.23762004  0.49070918
   0.04213063  0.00487972  0.12396261
   0.88392538  0.81134119  0.82092284
   0.80673022  0.90831999  0.18557724
   0.72731884  0.02408766  0.82469632
   0.89956818  0.17639727  0.13975727
   0.78995088  0.32687098  0.81565790
   0.94817849  0.39308238  0.91658293
   0.43077174  0.20989911  0.13445799
   0.32432289  0.11115394  0.76044265
   0.24063148  0.02135474  0.12303021
   0.34389767  0.83266676  0.82405193
   0.27068033  0.73596145  0.18958674
   0.38090963  0.64321831  0.06685853
   0.25418265  0.52899009  0.66337103
   0.12172704  0.36626609  0.32526474
   0.98790975  0.42366691  0.65729755
   0.95034137  0.61135605  0.33097266
   0.10018354  0.73205842  0.67544651
   0.08198465  0.86602889  0.31218124
   0.17714756  0.95851154  0.49665405
   0.74087808  0.62276386  0.33853347
   0.66582981  0.72737067  0.70065456
   0.51376454  0.71943405  0.34631208
   0.46388366  0.51183562  0.66165732
   0.55384685  0.42221433  0.30256013
   0.52081715  0.23348298  0.63399144
   0.59141546  0.16598473  0.44491130
   0.87587827  0.61600943  0.04246599
   0.60109812  0.79821185  0.03909178
   0.81971527  0.38612991  0.18125035
   0.58470214  0.37015506  0.98281041
   0.26909138  0.36793407  0.93911157
   0.10998023  0.64194996  0.98723300
   0.16404683  0.26243763  0.67561656
   0.80900607  0.34044949  0.47411982
   0.01230200  0.07607870  0.52471824
   0.80647711  0.90431201  0.52022921
   0.35897694  0.79504615  0.51829756
   0.32663393  0.22041134  0.45633222
   0.53049308  0.03342922  0.82367783
   0.94983661  0.70206916  0.04288971
   0.68304316  0.75789932  0.01156023
   0.64624121  0.10062113  0.04891711
   0.97274085  0.11178780  0.90552595
   0.79018064  0.41993643  0.06519602
   0.12353257  0.93427399  0.90182306
   0.49781328  0.34050070  0.92417191
   0.22447188  0.26439303  0.89637564
   0.46489875  0.91844860  0.04186883
   0.19396415  0.60475027  0.96399843
   0.14974363  0.24380625  0.54596350
   0.89234870  0.32062646  0.42661269
   0.86322211  0.64522050  0.56427768
   0.20119916  0.66961902  0.46065711
   0.97873767  0.96306345  0.50317982
   0.34083155  0.48381441  0.43413439
   0.71030525  0.89315013  0.51003083
   0.44755819  0.80991562  0.57457868
   0.68506154  0.45570787  0.52249717
   0.39653056  0.16649063  0.41099315
Direct configuration=     4
   0.01572374  0.97540523  0.98371590
   0.90583361  0.83744248  0.96167173
   0.78512100  0.88574700  0.04327345
   0.75194318  0.04116698  0.96656057
   0.87062343  0.16560867  0.99793698
   0.85149108  0.33082494  0.93782535
   0.52387848  0.05988822  0.96466014
   0.44186016  0.19541223  0.99331353
   0.30981963  0.14382958  0.89775138
   0.24897576  0.99384023  0.98333229
   0.33689077  0.86175953  0.96381392
   0.29574636  0.70857480  0.05643251
   0.23334362  0.51967047  0.52006440
   0.12244870  0.38789118  0.46735151
   0.99163504  0.43240035  0.51485705
   0.97060016  0.60239245  0.47253786
   0.08795071  0.72218935  0.53208339
   0.08521273  0.88516708  0.45498006
   0.73909983  0.61509830  0.48199610
   0.66062792  0.73818724  0.55738465
   0.51948060  0.70199099  0.48853037
   0.46834218  0.52826317  0.52023193
   0.55464518  0.41201807  0.44579061
   0.51807204  0.23762365  0.49070587
   0.04212682  0.00488571  0.12399024
   0.88392314  0.81137361  0.82093241
   0.80673868  0.90831078  0.18558479
   0.72730466  0.02407197  0.82464253
   0.89958026  0.17637826  0.13978750
   0.78994261  0.32687941  0.81563190
   0.94817078  0.39305465  0.91657631
   0.43076298  0.20988387  0.13451306
   0.32432655  0.11116454  0.76038245
   0.24064015  0.02136739  0.12304845
   0.34389332  0.83267259  0.82403594
   0.27067469  0.73597487  0.18961955
   0.38090158  0.64323434  0.06686738
   0.25417170  0.52898821  0.66338956
   0.12173010  0.36625474  0.32522142
   0.98790570  0.42366488  0.65731390
   0.95032961  0.61136452  0.33095091
   0.10017776  0.73202717  0.67545396
   0.08198937  0.86601578  0.31217991
   0.17717363  0.95851763  0.49666108
   0.74086525  0.62277387  0.33848807
   0.66583992  0.72738755  0.70070580
   0.51377085  0.71944387  0.34630609
   0.46389546  0.51183359  0.66166578
   0.55382611  0.42222811  0.30252185
   0.52082050  0.23348689  0.63400864
   0.59140599  0.16600618  0.44489596
   0.87587756  0.61599762  0.04245911
   0.60107178  0.79820222  0.03909747
   0.81973539  0.38612492  0.18128966
   0.58471445  0.37015529  0.98283992
   0.26909245  0.36793541  0.93911481
   0.10994345  0.64196229  0.98723529
   0.16405674  0.26244246  0.67564113
   0.80896036  0.34045489  0.47411075
   0.01231357  0.07611111  0.52472550
   0.80649046  0.90432779  0.52023090
   0.35896480  0.79503593  0.51827833
   0.32661888  0.22040089  0.45635458
   0.53049574  0.03343761  0.82369349
   0.94983964  0.70206551  0.04288892
   0.68304265  0.75789507  0.01156101
   0.64624084  0.10062190  0.04891816
   0.97274239  0.11179167  0.90552424
   0.79018134  0.41993513  0.06519372
   0.12353061  0.93427217  0.90182277
   0.49781366  0.34050510  0.92417179
   0.22446961  0.26439411  0.89637470
   0.46489810  0.91844732  0.04186839
   0.19396526  0.60474606  0.96399570
   0.14974292  0.24380323  0.54596366
   0.89234878  0.32062292  0.42661160
   0.86322217  0.64522117  0.56428085
   0.20120076  0.66962002  0.46065789
   0.97873300  0.96306244  0.50317939
   0.34083012  0.48381460  0.43413539
   0.71030616  0.89315445  0.51003076
   0.44755786  0.80991556  0.57458006
   0.68506035  0.45570465  0.52249656
   0.39652778  0.16648541  0.41099448
Direct configuration=     5
   0.01572157  0.97540449  0.98371554
   0.90582891  0.83744367  0.96167017
   0.78512489  0.88574995  0.04327571
   0.75194758  0.04117074  0.96656420
   0.87062304  0.16560956  0.99793756
   0.85149100  0.33082582  0.93782769
   0.52387568  0.05988092  0.96465646
   0.44185852  0.19540749  0.99330749
   0.30982491  0.14383017  0.89775775
   0.24898025  0.99384181  0.98332898
   0.33689424  0.86176302  0.96380796
   0.29574646  0.70857519  0.05643649
   0.23334336  0.51967474  0.52006128
   0.12245081  0.38789361  0.46735534
   0.99164113  0.43240228  0.51485616
   0.97060591  0.60239978  0.47253236
   0.08795110  0.72218348  0.53208697
   0.08521367  0.88517004  0.45497694
   0.73909888  0.61510546  0.48199841
   0.66062317  0.73818251  0.55738475
   0.51948009  0.70199066  0.48853089
   0.46834173  0.52826222  0.52023408
   0.55464735  0.41201623  0.44578937
   0.51807612  0.23762854  0.49070164
   0.04212134  0.00489313  0.12402418
   0.88391993  0.81141583  0.82094344
   0.80674978  0.90829861  0.18559426
   0.72728711  0.02405200  0.82457740
   0.89959557  0.17635317  0.13982450
   0.78993295  0.32689048  0.81560022
   0.94816198  0.39301908  0.91656738
   0.43075187  0.20986311  0.13457995
   0.32433094  0.11117966  0.76030853
   0.24065169  0.02138365  0.12307040
   0.34388761  0.83268043  0.82401573
   0.27066782  0.73599201  0.18965943
   0.38089214  0.64325445  0.06687934
   0.25415705  0.52898570  0.66341225
   0.12173418  0.36624058  0.32516896
   0.98790052  0.42366246  0.65733370
   0.95031448  0.61137562  0.33092427
   0.10017015  0.73198591  0.67546349
   0.08199560  0.86599858  0.31217822
   0.17720589  0.95852411  0.49666935
   0.74084829  0.62278689  0.33843259
   0.66585293  0.72740993  0.70076869
   0.51377922  0.71945666  0.34629899
   0.46391094  0.51183096  0.66167643
   0.55379890  0.42224610  0.30247482
   0.52082504  0.23349212  0.63402920
   0.59139464  0.16603333  0.44487503
   0.87587721  0.61598247  0.04244997
   0.60103998  0.79818833  0.03910408
   0.81976067  0.38612008  0.18133563
   0.58472816  0.37015474  0.98287725
   0.26909364  0.36793699  0.93911898
   0.10990012  0.64197630  0.98723687
   0.16406960  0.26244840  0.67567075
   0.80890496  0.34046149  0.47409611
   0.01232737  0.07614876  0.52473404
   0.80650637  0.90434827  0.52023297
   0.35895105  0.79502281  0.51825446
   0.32660054  0.22038573  0.45638330
   0.53049934  0.03344813  0.82371232
   0.94984363  0.70206064  0.04288782
   0.68304182  0.75788949  0.01156211
   0.64624035  0.10062293  0.04891956
   0.97274444  0.11179683  0.90552198
   0.79018237  0.41993329  0.06519105
   0.12352801  0.93426976  0.90182242
   0.49781432  0.34051099  0.92417178
   0.22446660  0.26439555  0.89637346
   0.46489723  0.91844562  0.04186778
   0.19396641  0.60474060  0.96399216
   0.14974201  0.24379925  0.54596408
   0.89234860  0.32061828  0.42661030
   0.86322225  0.64522205  0.56428504
   0.20120287  0.66962136  0.46065894
   0.97872692  0.96306143  0.50317886
   0.34082824  0.48381486  0.43413675
   0.71030745  0.89316018  0.51003069
   0.44755725  0.80991546  0.57458180
   0.68505878  0.45570037  0.52249570
   0.39652399  0.16647855  0.41099634
Direct configuration=     6
   0.01571894  0.97540369  0.98371543
   0.90582314  0.83744522  0.96166842
   0.78512964  0.88575355  0.04327862
   0.75195285  0.04117529  0.96656798
   0.87062264  0.16561068  0.99793860
   0.85149059  0.33082676  0.93783032
   0.52387224  0.05987194  0.96465216
   0.44185645  0.19540172  0.99330075
   0.30983146  0.14383081  0.89776484
   0.24898580  0.99384385  0.98332508
   0.33689849  0.86176727  0.96380046
   0.29574631  0.70857592  0.05644180
   0.23334305  0.51968002  0.52005766
   0.12245343  0.38789648  0.46735942
   0.99164856  0.43240464  0.51485521
   0.97061293  0.60240882  0.47252525
   0.08795161  0.72217626  0.53209144
   0.08521507  0.88517385  0.45497330
   0.73909774  0.61511438  0.48200077
   0.66061738  0.73817676  0.55738554
   0.51947945  0.70199029  0.48853151
   0.46834120  0.52826101  0.52023681
   0.55464994  0.41201406  0.44578735
   0.51808098  0.23763474  0.49069665
   0.04211388  0.00490151  0.12406218
   0.88391559  0.81146705  0.82095464
   0.80676335  0.90828360  0.18560519
   0.72726723  0.02402846  0.82450597
   0.89961347  0.17632222  0.13986569
   0.78992294  0.32690403  0.81556510
   0.94815318  0.39297677  0.91655611
   0.43073884  0.20983655  0.13465364
   0.32433567  0.11119999  0.76022581
   0.24066610  0.02140305  0.12309424
   0.34388064  0.83269034  0.82399215
   0.27066019  0.73601232  0.18970348
   0.38088230  0.64327771  0.06689455
   0.25413869  0.52898255  0.66343756
   0.12173925  0.36622435  0.32511155
   0.98789439  0.42365989  0.65735533
   0.95029641  0.61138921  0.33089458
   0.10016079  0.73193499  0.67547476
   0.08200327  0.86597752  0.31217629
   0.17724242  0.95852980  0.49667805
   0.74082734  0.62280271  0.33837097
   0.66586847  0.72743770  0.70083903
   0.51378962  0.71947221  0.34629142
   0.46392991  0.51182781  0.66168876
   0.55376561  0.42226791  0.30242222
   0.52083087  0.23349866  0.63405129
   0.59138236  0.16606505  0.44484817
   0.87587772  0.61596451  0.04243859
   0.60100514  0.79816952  0.03911087
   0.81978998  0.38611673  0.18138352
   0.58474132  0.37015284  0.98292091
   0.26909478  0.36793862  0.93912396
   0.10985438  0.64199027  0.98723669
   0.16408514  0.26245505  0.67570309
   0.80884401  0.34046887  0.47407413
   0.01234223  0.07618766  0.52474303
   0.80652350  0.90437303  0.52023532
   0.35893742  0.79500719  0.51822723
   0.32658013  0.22036502  0.45641760
   0.53050393  0.03346027  0.82373272
   0.94984852  0.70205452  0.04288637
   0.68304055  0.75788267  0.01156359
   0.64623974  0.10062419  0.04892127
   0.97274700  0.11180323  0.90551919
   0.79018382  0.41993086  0.06518830
   0.12352481  0.93426677  0.90182204
   0.49781538  0.34051836  0.92417201
   0.22446290  0.26439737  0.89637196
   0.46489616  0.91844349  0.04186699
   0.19396736  0.60473401  0.96398791
   0.14974089  0.24379436  0.54596490
   0.89234794  0.32061259  0.42660891
   0.86322236  0.64522315  0.56429020
   0.20120549  0.66962303  0.46066024
   0.97871954  0.96306068  0.50317827
   0.34082591  0.48381519  0.43413848
   0.71030919  0.89316731  0.51003061
   0.44755627  0.80991527  0.57458381
   0.68505683  0.45569506  0.52249458
   0.39651915  0.16647012  0.41099881
Direct configuration=     7
   0.01571589  0.97540291  0.98371573
   0.90581640  0.83744717  0.96166662
   0.78513520  0.88575774  0.04328223
   0.75195887  0.04118054  0.96657149
   0.87062229  0.16561202  0.99794029
   0.85148967  0.33082764  0.93783306
   0.52386822  0.05986136  0.96464738
   0.44185396  0.19539501  0.99329375
   0.30983923  0.14383144  0.89777214
   0.24899236  0.99384634  0.98332073
   0.33690347  0.86177223  0.96379142
   0.29574575  0.70857714  0.05644860
   0.23334271  0.51968628  0.52005369
   0.12245656  0.38789969  0.46736338
   0.99165724  0.43240745  0.51485430
   0.97062113  0.60241952  0.47251640
   0.08795225  0.72216776  0.53209679
   0.08521708  0.88517853  0.45496927
   0.73909643  0.61512502  0.48200287
   0.66061066  0.73817010  0.55738739
   0.51947867  0.70198988  0.48853219
   0.46834061  0.52825954  0.52024014
   0.55465289  0.41201162  0.44578429
   0.51808650  0.23764227  0.49069105
   0.04210416  0.00491033  0.12410179
   0.88390993  0.81152628  0.82096459
   0.80677918  0.90826587  0.18561706
   0.72724617  0.02400221  0.82443380
   0.89963322  0.17628570  0.13990819
   0.78991367  0.32691986  0.81552907
   0.94814556  0.39292895  0.91654249
   0.43072442  0.20980396  0.13472856
   0.32434035  0.11122625  0.76013973
   0.24068333  0.02142502  0.12311795
   0.34387252  0.83270231  0.82396618
   0.27065228  0.73603521  0.18974851
   0.38087312  0.64330305  0.06691311
   0.25411662  0.52897879  0.66346372
   0.12174530  0.36620688  0.32505374
   0.98788752  0.42365745  0.65737702
   0.95027592  0.61140512  0.33086385
   0.10014979  0.73187490  0.67548738
   0.08201230  0.86595291  0.31217425
   0.17728109  0.95853342  0.49668627
   0.74080259  0.62282105  0.33830758
   0.66588607  0.72747064  0.70091217
   0.51380198  0.71949024  0.34628413
   0.46395209  0.51182424  0.66170220
   0.55372671  0.42229313  0.30236754
   0.52083807  0.23350647  0.63407288
   0.59137021  0.16610006  0.44481506
   0.87587960  0.61594432  0.04242501
   0.60096984  0.79814512  0.03911711
   0.81982212  0.38611623  0.18142842
   0.58475194  0.37014899  0.98296935
   0.26909566  0.36794011  0.93912963
   0.10981056  0.64200235  0.98723365
   0.16410307  0.26246198  0.67573558
   0.80878193  0.34047663  0.47404295
   0.01235688  0.07622363  0.52475164
   0.80654039  0.90440156  0.52023781
   0.35892568  0.79498948  0.51819803
   0.32655895  0.22033789  0.45645664
   0.53050953  0.03347343  0.82375291
   0.94985426  0.70204717  0.04288452
   0.68303872  0.75787468  0.01156549
   0.64623901  0.10062569  0.04892330
   0.97275005  0.11181086  0.90551589
   0.79018578  0.41992776  0.06518579
   0.12352102  0.93426322  0.90182167
   0.49781696  0.34052720  0.92417261
   0.22445852  0.26439956  0.89637020
   0.46489488  0.91844094  0.04186600
   0.19396788  0.60472643  0.96398305
   0.14973960  0.24378862  0.54596630
   0.89234656  0.32060592  0.42660756
   0.86322249  0.64522445  0.56429629
   0.20120861  0.66962503  0.46066181
   0.97871100  0.96306046  0.50317766
   0.34082318  0.48381560  0.43414062
   0.71031141  0.89317582  0.51003053
   0.44755479  0.80991498  0.57458600
   0.68505453  0.45568874  0.52249313
   0.39651320  0.16646021  0.41100194
Direct configuration=     8
   0.01571247  0.97540222  0.98371665
   0.90580873  0.83744955  0.96166487
   0.78514148  0.88576246  0.04328662
   0.75196550  0.04118636  0.96657432
   0.87062205  0.16561356  0.99794281
   0.85148809  0.33082836  0.93783574
   0.52386367  0.05984928  0.96464229
   0.44185105  0.19538745  0.99328694
   0.30984819  0.14383202  0.89777912
   0.24899988  0.99384931  0.98331604
   0.33690913  0.86177781  0.96378081
   0.29574463  0.70857897  0.05645703
   0.23334234  0.51969347  0.52004955
   0.12246021  0.38790314  0.46736683
   0.99166703  0.43241066  0.51485350
   0.97063040  0.60243177  0.47250570
   0.08795302  0.72215807  0.53210301
   0.08521980  0.88518413  0.45496504
   0.73909498  0.61513736  0.48200442
   0.66060309  0.73816266  0.55739070
   0.51947776  0.70198946  0.48853293
   0.46833997  0.52825782  0.52024409
   0.55465611  0.41200901  0.44577991
   0.51809253  0.23765114  0.49068500
   0.04209188  0.00491908  0.12414040
   0.88390280  0.81159242  0.82097192
   0.80679703  0.90824562  0.18562932
   0.72722514  0.02397411  0.82436650
   0.89965404  0.17624399  0.13994904
   0.78990626  0.32693774  0.81549467
   0.94814025  0.39287691  0.91652652
   0.43070911  0.20976513  0.13479912
   0.32434459  0.11125914  0.76005584
   0.24070333  0.02144898  0.12313948
   0.34386341  0.83271635  0.82393880
   0.27064457  0.73606003  0.18979129
   0.38086562  0.64332939  0.06693514
   0.25409091  0.52897442  0.66348895
   0.12175228  0.36618901  0.32500014
   0.98788015  0.42365542  0.65739697
   0.95025355  0.61142318  0.33083411
   0.10013725  0.73180622  0.67550093
   0.08202258  0.86592510  0.31217230
   0.17731975  0.95853373  0.49669313
   0.74077425  0.62284164  0.33824686
   0.66590526  0.72750851  0.70098339
   0.51381623  0.71951044  0.34627787
   0.46397721  0.51182033  0.66171615
   0.55368273  0.42232127  0.30231438
   0.52084677  0.23351554  0.63409193
   0.59135923  0.16613708  0.44477544
   0.87588338  0.61592248  0.04240926
   0.60093651  0.79811461  0.03912214
   0.81985599  0.38611985  0.18146573
   0.58475823  0.37014272  0.98302108
   0.26909607  0.36794130  0.93913587
   0.10977275  0.64201086  0.98722673
   0.16412306  0.26246874  0.67576570
   0.80872299  0.34048444  0.47400095
   0.01237015  0.07625287  0.52475908
   0.80655567  0.90443330  0.52024032
   0.35891741  0.79497015  0.51816817
   0.32653818  0.22030358  0.45649963
   0.53051617  0.03348698  0.82377110
   0.94986080  0.70203857  0.04288221
   0.68303624  0.75786562  0.01156785
   0.64623816  0.10062739  0.04892560
   0.97275359  0.11181968  0.90551210
   0.79018832  0.41992394  0.06518383
   0.12351668  0.93425913  0.90182136
   0.49781915  0.34053748  0.92417372
   0.22445351  0.26440212  0.89636823
   0.46489341  0.91843795  0.04186479
   0.19396773  0.60471798  0.96397767
   0.14973815  0.24378207  0.54596843
   0.89234426  0.32059834  0.42660636
   0.86322263  0.64522595  0.56430326
   0.20121223  0.66962735  0.46066364
   0.97870142  0.96306102  0.50317705
   0.34082006  0.48381607  0.43414319
   0.71031418  0.89318567  0.51003046
   0.44755270  0.80991455  0.57458827
   0.68505188  0.45568144  0.52249131
   0.39650611  0.16644890  0.41100581
Direct configuration=     9
   0.01570872  0.97540170  0.98371837
   0.90580023  0.83745240  0.96166330
   0.78514839  0.88576764  0.04329182
   0.75197260  0.04119267  0.96657607
   0.87062197  0.16561529  0.99794631
   0.85148569  0.33082881  0.93783820
   0.52385864  0.05983581  0.96463705
   0.44184772  0.19537915  0.99328076
   0.30985827  0.14383253  0.89778527
   0.24900832  0.99385278  0.98331114
   0.33691540  0.86178394  0.96376863
   0.29574280  0.70858156  0.05646721
   0.23334195  0.51970155  0.52004538
   0.12246436  0.38790670  0.46736939
   0.99167780  0.43241424  0.51485289
   0.97064062  0.60244548  0.47249303
   0.08795394  0.72214729  0.53211007
   0.08522336  0.88519066  0.45496077
   0.73909340  0.61515134  0.48200515
   0.66059482  0.73815460  0.55739583
   0.51947672  0.70198906  0.48853371
   0.46833931  0.52825582  0.52024867
   0.55465951  0.41200633  0.44577395
   0.51809893  0.23766138  0.49067864
   0.04207679  0.00492723  0.12417546
   0.88389406  0.81166432  0.82097535
   0.80681662  0.90822303  0.18564142
   0.72720532  0.02394506  0.82430951
   0.89967512  0.17619752  0.13998532
   0.78990172  0.32695740  0.81546430
   0.94813831  0.39282196  0.91650829
   0.43069348  0.20972001  0.13485990
   0.32434803  0.11129925  0.75997966
   0.24072602  0.02147436  0.12315681
   0.34385347  0.83273243  0.82391099
   0.27063746  0.73608615  0.18982876
   0.38086069  0.64335572  0.06696071
   0.25406165  0.52896950  0.66351151
   0.12176015  0.36617157  0.32495522
   0.98787251  0.42365414  0.65741337
   0.95022989  0.61144322  0.33080727
   0.10012332  0.73172957  0.67551500
   0.08203398  0.86589448  0.31217078
   0.17735620  0.95852963  0.49669774
   0.74074259  0.62286420  0.33819327
   0.66592552  0.72755096  0.70104808
   0.51383230  0.71953249  0.34627338
   0.46400493  0.51181618  0.66173003
   0.55363429  0.42235183  0.30226625
   0.52085708  0.23352582  0.63410644
   0.59135041  0.16617486  0.44472916
   0.87588956  0.61589959  0.04239141
   0.60090731  0.79807767  0.03912540
   0.81989063  0.38612864  0.18149158
   0.58475873  0.37013367  0.98307482
   0.26909581  0.36794202  0.93914256
   0.10974444  0.64201434  0.98721512
   0.16414480  0.26247493  0.67579111
   0.80867099  0.34049212  0.47394684
   0.01238097  0.07627219  0.52476475
   0.80656811  0.90446766  0.52024278
   0.35891390  0.79494963  0.51813879
   0.32651878  0.22026147  0.45654590
   0.53052382  0.03350026  0.82378555
   0.94986808  0.70202875  0.04287937
   0.68303303  0.75785553  0.01157072
   0.64623719  0.10062928  0.04892817
   0.97275761  0.11182966  0.90550785
   0.79019152  0.41991935  0.06518267
   0.12351182  0.93425454  0.90182114
   0.49782204  0.34054916  0.92417548
   0.22444790  0.26440504  0.89636605
   0.46489177  0.91843452  0.04186336
   0.19396673  0.60470880  0.96397189
   0.14973658  0.24377477  0.54597146
   0.89234086  0.32058994  0.42660543
   0.86322280  0.64522764  0.56431103
   0.20121635  0.66963002  0.46066572
   0.97869094  0.96306255  0.50317645
   0.34081659  0.48381663  0.43414623
   0.71031751  0.89319683  0.51003040
   0.44754990  0.80991395  0.57459054
   0.68504891  0.45567319  0.52248907
   0.39649787  0.16643625  0.41101050
Direct configuration=    10
   0.01570469  0.97540145  0.98372102
   0.90579098  0.83745571  0.96166200
   0.78515584  0.88577320  0.04329788
   0.75198003  0.04119934  0.96657643
   0.87062210  0.16561718  0.99795092
   0.85148235  0.33082890  0.93784031
   0.52385321  0.05982106  0.96463180
   0.44184399  0.19537019  0.99327556
   0.30986939  0.14383294  0.89779011
   0.24901760  0.99385678  0.98330610
   0.33692221  0.86179053  0.96375490
   0.29574012  0.70858503  0.05647922
   0.23334154  0.51971045  0.52004135
   0.12246900  0.38791027  0.46737075
   0.99168941  0.43241819  0.51485248
   0.97065165  0.60246054  0.47247830
   0.08795504  0.72213555  0.53211793
   0.08522783  0.88519811  0.45495664
   0.73909173  0.61516693  0.48200484
   0.66058596  0.73814607  0.55740309