 vasp.6.5.0 dev (build Oct 02 2023 09:10:33) gamma-only                         
  
 executed on             LinuxIFC date 2023.11.09  10:05:48
 running    4 mpi-ranks, on    1 nodes
 distrk:  each k-point on    4 cores,    1 groups
 distr:  one band on NCORE=   1 cores,    4 groups


--------------------------------------------------------------------------------------------------------


 INCAR:
   KSPACING = 300
   IBRION = 0
   NSW = 1000
   POTIM = 2.0
   MDALGO = 3
   TEBEG = 300
   LANGEVIN_GAMMA = 3.0 3.0
   ISIF = 2
   RANDOM_SEED = 10 0 0
   ML_LMLFF = .TRUE.
   ML_MODE = RUN
   ML_OUTBLOCK = 1000
   ML_OUTPUT_MODE = 0

 POTCAR:    PAW_PBE Li 17Jan2003                  
 POTCAR:    PAW_PBE H 15Jun2001                   
 -----------------------------------------------------------------------------
|                                                                             |
|           W    W    AA    RRRRR   N    N  II  N    N   GGGG   !!!           |
|           W    W   A  A   R    R  NN   N  II  NN   N  G    G  !!!           |
|           W    W  A    A  R    R  N N  N  II  N N  N  G       !!!           |
|           W WW W  AAAAAA  RRRRR   N  N N  II  N  N N  G  GGG   !            |
|           WW  WW  A    A  R   R   N   NN  II  N   NN  G    G                |
|           W    W  A    A  R    R  N    N  II  N    N   GGGG   !!!           |
|                                                                             |
|     ISYM>0 for a molecular dynamics simmulation is not recommended.         |
|                                                                             |
 -----------------------------------------------------------------------------

 POTCAR:    PAW_PBE Li 17Jan2003                  
   VRHFIN =Li: s1p0                                                                                 
   LEXCH  = PE                                                                                      
   EATOM  =     5.3001 eV,    0.3895 Ry                                                             
                                                                                                    
   TITEL  = PAW_PBE Li 17Jan2003                                                                    
   LULTRA =        F    use ultrasoft PP ?                                                          
   IUNSCR =        1    unscreen: 0-lin 1-nonlin 2-no                                               
   RPACOR =    1.500    partial core radius                                                         
   POMASS =    7.010; ZVAL   =    1.000    mass and valenz                                          
   RCORE  =    2.050    outmost cutoff radius                                                       
   RWIGS  =    2.600; RWIGS  =    1.376    wigner-seitz radius (au A)                               
   ENMAX  =  140.000; ENMIN  =  100.000 eV                                                          
   ICORE  =        2    local potential                                                             
   LCOR   =        T    correct aug charges                                                         
   LPAW   =        T    paw PP                                                                      
   EAUG   =  331.638                                                                                
   DEXC   =    0.000                                                                                
   RMAX   =    2.098    core radius for proj-oper                                                   
   RAUG   =    1.300    factor for augmentation sphere                                              
   RDEP   =    2.094    radius for radial grids                                                     
   RDEPT  =    1.810    core radius for aug-charge                                                  
                                                                                                    
   Atomic configuration                                                                             
    4 entries                                                                                       
     n  l   j            E        occ.                                                              
     1  0  0.50       -51.8549   2.0000                                                             
     2  0  0.50        -2.8742   1.0000                                                             
     2  1  0.50        -1.3606   0.0000                                                             
     3  2  1.50        -1.3606   0.0000                                                             
   Description                                                                                      
     l       E           TYP  RCUT    TYP  RCUT                                                     
     0     -2.8742052     23  2.050                                                                 
     0     27.2116520     23  2.050                                                                 
     1     -1.3605826     23  2.050                                                                 
     2     -1.3605826     23  2.050                                                                 
  local pseudopotential read in
  partial core-charges read in
  partial kinetic energy density read in
  atomic valenz-charges read in
  non local Contribution for L=           0  read in
    real space projection operators read in
  non local Contribution for L=           0  read in
    real space projection operators read in
  non local Contribution for L=           1  read in
    real space projection operators read in
    PAW grid and wavefunctions read in
 
   number of l-projection  operators is LMAX  =           3
   number of lm-projection operators is LMMAX =           5
 
 POTCAR:    PAW_PBE H 15Jun2001                   
   VRHFIN =H: ultrasoft test                                                                        
   LEXCH  = PE                                                                                      
   EATOM  =    12.4884 eV,    0.9179 Ry                                                             
                                                                                                    
   TITEL  = PAW_PBE H 15Jun2001                                                                     
   LULTRA =        F    use ultrasoft PP ?                                                          
   IUNSCR =        0    unscreen: 0-lin 1-nonlin 2-no                                               
   RPACOR =    0.000    partial core radius                                                         
   POMASS =    1.000; ZVAL   =    1.000    mass and valenz                                          
   RCORE  =    1.100    outmost cutoff radius                                                       
   RWIGS  =    0.700; RWIGS  =    0.370    wigner-seitz radius (au A)                               
   ENMAX  =  250.000; ENMIN  =  200.000 eV                                                          
   RCLOC  =    0.701    cutoff for local pot                                                        
   LCOR   =        T    correct aug charges                                                         
   LPAW   =        T    paw PP                                                                      
   EAUG   =  400.000                                                                                
   RMAX   =    1.123    core radius for proj-oper                                                   
   RAUG   =    1.200    factor for augmentation sphere                                              
   RDEP   =    1.112    radius for radial grids                                                     
   RDEPT  =    0.926    core radius for aug-charge                                                  
                                                                                                    
   Atomic configuration                                                                             
    2 entries                                                                                       
     n  l   j            E        occ.                                                              
     1  0  0.50        -6.4927   1.0000                                                             
     2  1  0.50        -3.4015   0.0000                                                             
   Description                                                                                      
     l       E           TYP  RCUT    TYP  RCUT                                                     
     0     -6.4927494     23  1.100                                                                 
     0      6.8029130     23  1.100                                                                 
     1     -4.0817478     23  1.100                                                                 
  local pseudopotential read in
  atomic valenz-charges read in
  non local Contribution for L=           0  read in
    real space projection operators read in
  non local Contribution for L=           0  read in
    real space projection operators read in
  non local Contribution for L=           1  read in
    real space projection operators read in
    PAW grid and wavefunctions read in
 
   number of l-projection  operators is LMAX  =           3
   number of lm-projection operators is LMMAX =           5
 
 -----------------------------------------------------------------------------
|                                                                             |
|               ----> ADVICE to this user running VASP <----                  |
|                                                                             |
|     You have a (more or less) 'large supercell' and for larger cells it     |
|     might be more efficient to use real-space projection operators.         |
|     Therefore, try LREAL= Auto in the INCAR file.                           |
|     Mind: For very accurate calculation, you might also keep the            |
|     reciprocal projection scheme (i.e. LREAL=.FALSE.).                      |
|                                                                             |
 -----------------------------------------------------------------------------

  PAW_PBE Li 17Jan2003                  :
 energy of atom  1       EATOM=   -5.3001
 kinetic energy error for atom=   -8.1328 (will be added to EATOM!!)
  PAW_PBE H 15Jun2001                   :
 energy of atom  2       EATOM=  -12.4884
 kinetic energy error for atom= -321.8997 (will be added to EATOM!!)
 
 
 POSCAR: unknown system
  positions in direct lattice
  No initial velocities read in

  MD-specific parameters
                MDALGO =   3
        LANGEVIN_GAMMA =     3.000    3.000
                 CNEXP =     9.000   14.000
 exchange-correlation table for PE
   RHO(1)=    0.500       N(1)  =     2000
   RHO(2)=  100.500       N(2)  =     4000
 


--------------------------------------------------------------------------------------------------------


 ion  position               nearest neighbor table
   1  0.792  0.736  0.733-  47 1.86  53 1.87  61 1.96  26 2.69  14 2.70  30 2.73  19 2.76  15 2.77
                            32 2.81  13 2.82  20 2.84  16 2.86  23 2.89  24 2.91  28 3.25
   2  0.799  0.755  0.240-  62 1.75  48 1.91  44 2.05  14 2.60  20 2.62  24 2.64  25 2.78  29 2.80
                            19 2.83  16 2.85  31 2.90  23 2.92  15 2.99  27 3.04  13 3.10
   3  0.783  0.245  0.709-  55 1.86  64 1.90  45 1.98  41 2.07  53 2.08  18 2.62  16 2.63  21 2.75
                            32 2.76  22 2.78  15 2.84  13 2.85  28 2.86  17 2.90  30 2.90  14 2.99
   4  0.807  0.245  0.235-  56 1.81  64 1.97  42 1.99  54 1.99  63 2.04  18 2.57  27 2.73  13 2.85
                            25 2.85  31 2.88  22 2.88  16 2.90  17 2.92  29 2.96  14 2.97  15 3.01
   5  0.313  0.768  0.740-  58 1.82  51 1.84  57 1.90  47 2.04   9 2.61  11 2.63  32 2.65  23 2.71
                            30 2.76  26 2.88  28 2.92  12 2.92  10 2.94  19 2.97  24 2.99  20 3.16
   6  0.324  0.755  0.217-  50 1.90  48 1.95  57 2.02  23 2.53  31 2.67   9 2.70  29 2.70  24 2.70
                            10 2.75  12 2.80  11 2.98  27 3.01  25 3.02  19 3.06  20 3.15
   7  0.273  0.237  0.715-  41 1.95  59 1.95  51 1.97  60 2.08  28 2.36  11 2.65  17 2.73  12 2.80
                            18 2.83  22 2.91  26 2.93  21 3.00  32 3.01  10 3.07  30 3.07   9 3.17
   8  0.290  0.249  0.209-  52 1.91  42 1.92  60 2.00  59 2.03  46 2.04  27 2.57  11 2.79  31 2.82
                            17 2.84  12 2.85  22 2.88  25 2.91  21 2.92  29 3.00  10 3.05   9 3.06
   9  0.270  0.540  0.966-  57 1.73  49 1.93  37 1.96  33 2.06   5 2.61  26 2.66  19 2.69   6 2.70
                            23 2.71  25 2.74  17 2.87  30 2.89   8 3.06  29 3.12   7 3.17  21 3.19
  10  0.315  0.524  0.468-  50 1.87  38 2.00  24 2.65  29 2.72   6 2.75  22 2.79  30 2.79  26 2.93
                             5 2.94  20 2.95  25 3.00   8 3.05   7 3.07  18 3.27
  11  0.285  0.013  0.954-  51 1.67  52 1.82  59 1.90  39 1.90  35 2.00  57 2.08   5 2.63   7 2.65
                            28 2.70   8 2.79  27 2.80  19 2.81  17 2.85  32 2.91  21 2.95  31 2.97
  12  0.306  0.001  0.462-  40 1.84  58 1.85  60 1.97  31 2.73  28 2.74  27 2.75  22 2.77   7 2.80
                             6 2.80   8 2.85  32 2.86  24 2.87   5 2.92  20 3.02  18 3.11
  13  0.820  0.480  0.971-  33 1.60  63 1.87  53 2.06  17 2.47  25 2.67  21 2.77  26 2.78   1 2.82
                             4 2.85   3 2.85  19 2.92  30 2.98  29 3.00  23 3.08   2 3.10
  14  0.806  0.529  0.469-  62 1.77  34 1.85  54 1.97  38 1.97  53 2.03  20 2.52   2 2.60  24 2.67
                             1 2.70  25 2.78  18 2.79  29 2.81  26 2.82   4 2.97   3 2.99  30 3.01
  15  0.781  0.996  0.957-  61 1.96  55 1.98  63 2.06  35 2.06  32 2.67  19 2.70   1 2.77  21 2.83
                             3 2.84  23 2.84  31 2.85   2 2.99   4 3.01  17 3.03  28 3.09  27 3.13
  16  0.775  0.998  0.495-  55 1.76  40 1.97  36 2.02  62 2.05  32 2.52   3 2.63  24 2.70  18 2.80
                             2 2.85  20 2.85  22 2.85   1 2.86  28 2.88   4 2.90  31 2.92  27 3.20
  17  0.041  0.268  0.959-  41 1.71  59 1.94  33 1.98  63 2.00  35 2.04  13 2.47   7 2.73  28 2.84
                            26 2.84   8 2.84  25 2.84  11 2.85   9 2.87   3 2.90  27 2.90   4 2.92
  18  0.013  0.252  0.478-  36 1.95  64 2.03   4 2.57  28 2.57   3 2.62  14 2.79  27 2.79  16 2.80
                             7 2.83  26 2.95  25 2.97  12 3.11   8 3.11  10 3.27
  19  0.031  0.774  0.976-  61 1.81  57 1.95  35 1.95  44 1.97   9 2.69  15 2.70   1 2.76  11 2.81
                             2 2.83  27 2.84  25 2.88  26 2.88  13 2.92   5 2.97  28 3.04   6 3.06
  20  0.027  0.751  0.471-  43 1.91  62 1.95  34 1.96  44 2.04  36 2.09  14 2.52   2 2.62  26 2.70
                            25 2.82   1 2.84  16 2.85  28 2.93  10 2.95  27 2.99  12 3.02   6 3.15
  21  0.553  0.263  0.959-  63 1.96  37 2.01  45 2.02  30 2.71   3 2.75  13 2.77  15 2.83   8 2.92
                            31 2.94  32 2.95  29 2.95  11 2.95   7 3.00   4 3.02   9 3.19
  22  0.535  0.257  0.468-  46 1.80  64 1.82  45 1.96  40 2.02  12 2.77   3 2.78  10 2.79  29 2.81
                            16 2.85  31 2.86   8 2.88   4 2.88   7 2.91  32 2.94  30 2.94  14 3.09
  23  0.539  0.740  0.988-  48 1.75  37 1.90  47 1.98   6 2.53  29 2.69   9 2.71   5 2.71  30 2.77
                            31 2.83  15 2.84   1 2.89   2 2.92  32 2.98  11 3.01  13 3.08
  24  0.556  0.747  0.459-  38 1.59  62 1.85  48 2.06   2 2.64  10 2.65  29 2.66  14 2.67  16 2.70
                             6 2.70  32 2.84  31 2.85  12 2.87   1 2.91  30 2.91   5 2.99
  25  0.041  0.510  0.217-  34 1.82  42 1.97  44 2.01  50 2.03  13 2.67   9 2.74   2 2.78  14 2.78
                            20 2.82  17 2.84   4 2.85  19 2.88   8 2.91  18 2.97  10 3.00   6 3.02
  26  0.051  0.526  0.719-  33 1.94  43 1.99  49 2.03  41 2.05   9 2.66   1 2.69  20 2.70  13 2.78
                            14 2.82  17 2.84   5 2.88  19 2.88   7 2.93  10 2.93  18 2.95   3 3.12
  27  0.064  0.024  0.223-  42 1.95  52 2.00  36 2.04   8 2.57   4 2.73  12 2.75  18 2.79  11 2.80
                            19 2.84  17 2.90  20 2.99   6 3.01   2 3.04  15 3.13  16 3.20
  28  0.066  0.030  0.701-  51 1.83  36 1.87  41 2.01  43 2.08  35 2.09   7 2.36  18 2.57  11 2.70
                            12 2.74  17 2.84   3 2.86  16 2.88   5 2.92  20 2.93  19 3.04  15 3.09
  29  0.553  0.511  0.229-  48 1.80  54 1.81  37 1.94  38 1.96  46 2.03  24 2.66  23 2.69   6 2.70
                            10 2.72   2 2.80  22 2.81  14 2.81  21 2.95   4 2.96   8 3.00  13 3.00
  30  0.539  0.510  0.732-  45 1.86  49 1.92  53 1.96  21 2.71   1 2.73   5 2.76  23 2.77  10 2.79
                             9 2.89   3 2.90  24 2.91  22 2.94  13 2.98  14 3.01   7 3.07
  31  0.541  0.006  0.218-  52 1.91  40 1.91  39 1.94  56 1.98  46 2.05   6 2.67  12 2.73   8 2.82
                            23 2.83  24 2.85  15 2.85  22 2.86   4 2.88   2 2.90  16 2.92  21 2.94
  32  0.554  0.990  0.715-  47 1.70  55 1.80  16 2.52   5 2.65  15 2.67   3 2.76   1 2.81  24 2.84
                            12 2.86  11 2.91  22 2.94  21 2.95  23 2.98   7 3.01
  33  0.015  0.512  0.957-  13 1.60  26 1.94  17 1.98   9 2.06
  34  0.033  0.509  0.442-  25 1.82  14 1.85  20 1.96
  35  0.037  0.015  0.959-  19 1.95  11 2.00  17 2.04  15 2.06  28 2.09
  36  0.024  0.010  0.473-  28 1.87  18 1.95  16 2.02  27 2.04  20 2.09
  37  0.510  0.507  0.993-  23 1.90  29 1.94   9 1.96  21 2.01
  38  0.562  0.550  0.469-  24 1.59  29 1.96  14 1.97  10 2.00
  39  0.519  0.003  0.979-  11 1.90  31 1.94
  40  0.535  0.007  0.455-  12 1.84  31 1.91  16 1.97  22 2.02
  41  0.036  0.273  0.747-  17 1.71   7 1.95  28 2.01  26 2.05   3 2.07
  42  0.053  0.266  0.221-   8 1.92  27 1.95  25 1.97   4 1.99
  43  0.054  0.772  0.706-  20 1.91  26 1.99  28 2.08
  44  0.052  0.760  0.220-  19 1.97  25 2.01  20 2.04   2 2.05
  45  0.540  0.280  0.710-  30 1.86  22 1.96   3 1.98  21 2.02
  46  0.540  0.259  0.245-  22 1.80  29 2.03   8 2.04  31 2.05
  47  0.566  0.783  0.747-  32 1.70   1 1.86  23 1.98   5 2.04
  48  0.565  0.733  0.204-  23 1.75  29 1.80   2 1.91   6 1.95  24 2.06
  49  0.301  0.502  0.731-  30 1.92   9 1.93  26 2.03
  50  0.291  0.522  0.237-  10 1.87   6 1.90  25 2.03
  51  0.286  0.995  0.747-  11 1.67  28 1.83   5 1.84   7 1.97
  52  0.308  0.013  0.179-  11 1.82  31 1.91   8 1.91  27 2.00
  53  0.782  0.504  0.719-   1 1.87  30 1.96  14 2.03  13 2.06   3 2.08
  54  0.777  0.491  0.230-  29 1.81  14 1.97   4 1.99
  55  0.776  0.015  0.712-  16 1.76  32 1.80   3 1.86  15 1.98
  56  0.786  0.021  0.229-   4 1.81  31 1.98
  57  0.272  0.755  0.972-   9 1.73   5 1.90  19 1.95   6 2.02  11 2.08
  58  0.291  0.779  0.516-   5 1.82  12 1.85
  59  0.280  0.248  0.957-  11 1.90  17 1.94   7 1.95   8 2.03
  60  0.276  0.244  0.456-  12 1.97   8 2.00   7 2.08
  61  0.807  0.755  0.975-  19 1.81  15 1.96   1 1.96
  62  0.786  0.747  0.456-   2 1.75  14 1.77  24 1.85  20 1.95  16 2.05
  63  0.795  0.250  0.983-  13 1.87  21 1.96  17 2.00   4 2.04  15 2.06
  64  0.761  0.267  0.475-  22 1.82   3 1.90   4 1.97  18 2.03
 
  LATTYP: Found a simple cubic cell.
 ALAT       =     8.0542000000
  
  Lattice vectors:
  
 A1 = (   8.0542000000,   0.0000000000,   0.0000000000)
 A2 = (   0.0000000000,   8.0542000000,   0.0000000000)
 A3 = (   0.0000000000,   0.0000000000,   8.0542000000)


Analysis of symmetry for initial positions (statically):
=====================================================================
 Subroutine PRICEL returns:
 Original cell was already a primitive cell.
 

 Routine SETGRP: Setting up the symmetry group for a 
 simple cubic supercell.


 Subroutine GETGRP returns: Found  1 space group operations
 (whereof  1 operations were pure point group operations)
 out of a pool of 48 trial point group operations.


The static configuration has the point symmetry C_1 .


Analysis of symmetry for dynamics (positions and initial velocities):
=====================================================================
 Subroutine PRICEL returns:
 Original cell was already a primitive cell.
 

 Routine SETGRP: Setting up the symmetry group for a 
 simple cubic supercell.


 Subroutine GETGRP returns: Found  1 space group operations
 (whereof  1 operations were pure point group operations)
 out of a pool of 48 trial point group operations.


The dynamic configuration has the point symmetry C_1 .


 Subroutine INISYM returns: Found  1 space group operations
 (whereof  1 operations are pure point group operations),
 and found     1 'primitive' translations


----------------------------------------------------------------------------------------

                                     Primitive cell                                     

  volume of cell :     522.4771

  direct lattice vectors                    reciprocal lattice vectors
     8.054200000  0.000000000  0.000000000     0.124158824  0.000000000  0.000000000
     0.000000000  8.054200000  0.000000000     0.000000000  0.124158824  0.000000000
     0.000000000  0.000000000  8.054200000     0.000000000  0.000000000  0.124158824

  length of vectors
     8.054200000  8.054200000  8.054200000     0.124158824  0.124158824  0.124158824

  position of ions in fractional coordinates (direct lattice)
     0.791918550  0.735654400  0.733236350
     0.798987710  0.755247360  0.239676880
     0.783209530  0.245364450  0.708525450
     0.806953030  0.245004200  0.235075560
     0.313247040  0.767978880  0.739899270
     0.324427760  0.755378810  0.216823240
     0.272913530  0.237149560  0.714938030
     0.289906410  0.248555860  0.208754210
     0.269753230  0.540333600  0.966200760
     0.314733210  0.524050870  0.467817590
     0.284773320  0.012675600  0.954441080
     0.305805640  0.001187250  0.462085150
     0.819724370  0.479940040  0.971291950
     0.805566670  0.529146510  0.469402910
     0.781007310  0.996217000  0.957448150
     0.775411030  0.998482770  0.495032590
     0.040746940  0.268181060  0.959436240
     0.012937130  0.252048170  0.478332780
     0.030843160  0.773970390  0.976131790
     0.026995470  0.750802430  0.471394050
     0.552627280  0.262961190  0.959395290
     0.535449240  0.257467390  0.467918960
     0.539410570  0.740372870  0.987567730
     0.556260850  0.747126900  0.459481280
     0.040543730  0.510290180  0.216618040
     0.050991810  0.525781370  0.719053460
     0.063592270  0.023591980  0.222995010
     0.065516450  0.029784380  0.701432510
     0.552962490  0.510707760  0.229122470
     0.539298160  0.509774260  0.731613830
     0.541482450  0.005607920  0.218483840
     0.554087960  0.990359620  0.715358890
     0.015329680  0.512482190  0.956692760
     0.033258950  0.509022500  0.442332870
     0.036540020  0.015401510  0.959060510
     0.024478320  0.010209390  0.473193530
     0.509549650  0.506547390  0.992710310
     0.561925990  0.550373270  0.469460350
     0.519048980  0.002776620  0.978790200
     0.534665550  0.006818040  0.455405980
     0.036166310  0.272839740  0.747442330
     0.052582480  0.265979060  0.221028710
     0.054460360  0.772025610  0.706298170
     0.052228030  0.759979250  0.219567230
     0.539673110  0.280029970  0.709663340
     0.540343590  0.259020030  0.244811440
     0.566307170  0.782515780  0.747495120
     0.565169030  0.732883690  0.203665940
     0.301311280  0.501501770  0.731473350
     0.291112420  0.522122990  0.236583120
     0.285837060  0.994714420  0.747482670
     0.307907730  0.013376430  0.179291290
     0.782480000  0.503946260  0.719095020
     0.777080240  0.490677620  0.229906570
     0.775739600  0.014624360  0.712398920
     0.786017190  0.020711340  0.229431820
     0.271593250  0.755378740  0.971542640
     0.290535030  0.778671430  0.515572790
     0.280198530  0.248188820  0.956665530
     0.275704910  0.243639740  0.456422250
     0.807165610  0.755017080  0.975469170
     0.785603670  0.747007060  0.456155000
     0.794601560  0.249879390  0.982522600
     0.761178960  0.267200310  0.474621520

  ion indices of the primitive-cell ions
   primitive index   ion index
                 1           1
                 2           2
                 3           3
                 4           4
                 5           5
                 6           6
                 7           7
                 8           8
                 9           9
                10          10
                11          11
                12          12
                13          13
                14          14
                15          15
                16          16
                17          17
                18          18
                19          19
                20          20
                21          21
                22          22
                23          23
                24          24
                25          25
                26          26
                27          27
                28          28
                29          29
                30          30
                31          31
                32          32
                33          33
                34          34
                35          35
                36          36
                37          37
                38          38
                39          39
                40          40
                41          41
                42          42
                43          43
                44          44
                45          45
                46          46
                47          47
                48          48
                49          49
                50          50
                51          51
                52          52
                53          53
                54          54
                55          55
                56          56
                57          57
                58          58
                59          59
                60          60
                61          61
                62          62
                63          63
                64          64

----------------------------------------------------------------------------------------

 
 -----------------------------------------------------------------------------
|                                                                             |
|           W    W    AA    RRRRR   N    N  II  N    N   GGGG   !!!           |
|           W    W   A  A   R    R  NN   N  II  NN   N  G    G  !!!           |
|           W    W  A    A  R    R  N N  N  II  N N  N  G       !!!           |
|           W WW W  AAAAAA  RRRRR   N  N N  II  N  N N  G  GGG   !            |
|           WW  WW  A    A  R   R   N   NN  II  N   NN  G    G                |
|           W    W  A    A  R    R  N    N  II  N    N   GGGG   !!!           |
|                                                                             |
|     The requested file  could not be found or opened for reading            |
|     k-point information. Automatic k-point generation is used as a          |
|     fallback, which may lead to unwanted results.                           |
|                                                                             |
 -----------------------------------------------------------------------------

 

Automatic generation of k-mesh.
 Grid dimensions derived from KSPACING:
 generate k-points for:    1    1    1

 Generating k-lattice:

  Cartesian coordinates                     Fractional coordinates (reciprocal lattice)
     0.124158824  0.000000000  0.000000000     1.000000000  0.000000000  0.000000000
     0.000000000  0.124158824  0.000000000     0.000000000  1.000000000  0.000000000
     0.000000000  0.000000000  0.124158824     0.000000000  0.000000000  1.000000000

  Length of vectors
     0.124158824  0.124158824  0.124158824

  Shift w.r.t. Gamma in fractional coordinates (k-lattice)
     0.000000000  0.000000000  0.000000000

 
 Subroutine IBZKPT returns following result:
 ===========================================
 
 Found      1 irreducible k-points:
 
 Following reciprocal coordinates:
            Coordinates               Weight
  0.000000  0.000000  0.000000      1.000000
 
 Following cartesian coordinates:
            Coordinates               Weight
  0.000000  0.000000  0.000000      1.000000
 


--------------------------------------------------------------------------------------------------------




 Dimension of arrays:
   k-points           NKPTS =      1   k-points in BZ     NKDIM =      1   number of bands    NBANDS=     68
   number of dos      NEDOS =    301   number of ions     NIONS =     64
   non local maximal  LDIM  =      3   non local SUM 2l+1 LMDIM =      5
   total plane-waves  NPLWV =      8
   max r-space proj   IRMAX =      1   max aug-charges    IRDMAX=    200
   dimension x,y,z NGX =     2 NGY =    2 NGZ =    2
   dimension x,y,z NGXF=     2 NGYF=    2 NGZF=    2
   support grid    NGXF=     2 NGYF=    2 NGZF=    2
   ions per type =              32  32
   NGX,Y,Z   is equivalent  to a cutoff of   0.41,  0.41,  0.41 a.u.
   NGXF,Y,Z  is equivalent  to a cutoff of   0.41,  0.41,  0.41 a.u.

 SYSTEM =  unknown system                          
 POSCAR =  unknown system                          

 Startparameter for this run:
   NWRITE =      2    write-flag & timer
   PREC   = normal    normal or accurate (medium, high low for compatibility)
   ISTART =      0    job   : 0-new  1-cont  2-samecut
   ICHARG =      2    charge: 1-file 2-atom 10-const
   ISPIN  =      1    spin polarized calculation?
   LNONCOLLINEAR =      F non collinear calculations
   LSORBIT =      F    spin-orbit coupling
   INIWAV =      1    electr: 0-lowe 1-rand  2-diag
   LASPH  =      F    aspherical Exc in radial PAW
 Electronic Relaxation 1
   ENCUT  =    1.0 eV   0.07 Ry    0.27 a.u.   0.66  0.66  0.66*2*pi/ulx,y,z
   ENINI  =    1.0     initial cutoff
   ENAUG  =  400.0 eV  augmentation charge cutoff
   NELM   =     60;   NELMIN=  2; NELMDL= -5     # of ELM steps 
   EDIFF  = 0.1E-03   stopping-criterion for ELM
   LREAL  =      F    real-space projection
   NLSPLINE    = F    spline interpolate recip. space projectors
   LCOMPAT=      F    compatible to vasp.4.4
   GGA_COMPAT  = T    GGA compatible to vasp.4.4-vasp.4.6
   LMAXPAW     = -100 max onsite density
   LMAXMIX     =    2 max onsite mixed and CHGCAR
   VOSKOWN=      0    Vosko Wilk Nusair interpolation
   ROPT   =    0.00000   0.00000
 Ionic relaxation
   EDIFFG = 0.1E-02   stopping-criterion for IOM
   NSW    =   1000    number of steps for IOM
   NBLOCK =   1000;   KBLOCK =      1    inner block; outer block 
   IBRION =      0    ionic relax: 0-MD 1-quasi-New 2-CG
   NFREE  =      0    steps in history (QN), initial steepest desc. (CG)
   ISIF   =      2    stress and relaxation
   IWAVPR =     11    prediction:  0-non 1-charg 2-wave 3-comb
   ISYM   =      2    0-nonsym 1-usesym 2-fastsym
   LCORR  =      T    Harris-Foulkes like correction to forces

   POTIM  = 2.0000    time-step for ionic-motion
   TEIN   =  300.0    initial temperature
   TEBEG  =  300.0;   TEEND  = 300.0 temperature during run
   SMASS  =  -3.00    Nose mass-parameter (am)
   estimated Nose-frequenzy (Omega)   =  0.10E-29 period in steps = 0.31E+46 mass=  -0.148E-26a.u.
   SCALEE = 1.0000    scale energy and forces
   NPACO  =    256;   APACO  = 10.0  distance and # of slots for P.C.
   PSTRESS=    0.0 pullay stress

  Mass of Ions in am
   POMASS =   7.01  1.00
  Ionic Valenz
   ZVAL   =   1.00  1.00
  Atomic Wigner-Seitz radii
   RWIGS  =  -1.00 -1.00
  virtual crystal weights 
   VCA    =   1.00  1.00
   NELECT =      64.0000    total number of electrons
   NUPDOWN=      -1.0000    fix difference up-down

 DOS related values:
   EMIN   =  10.00;   EMAX   =-10.00  energy-range for DOS
   EFERMI =   0.00;   METHOD = LEGACY      
   ISMEAR =     1;   SIGMA  =   0.20  broadening in eV -4-tet -1-fermi 0-gaus

 Electronic relaxation 2 (details)
   IALGO  =     38    algorithm
   LDIAG  =      T    sub-space diagonalisation (order eigenvalues)
   LSUBROT=      F    optimize rotation matrix (better conditioning)
   TURBO    =      0    0=normal 1=particle mesh
   IRESTART =      0    0=no restart 2=restart with 2 vectors
   NREBOOT  =      0    no. of reboots
   NMIN     =      0    reboot dimension
   EREF     =   0.00    reference energy to select bands
   IMIX   =      4    mixing-type and parameters
     AMIX     =   0.40;   BMIX     =  1.00
     AMIX_MAG =   1.60;   BMIX_MAG =  1.00
     AMIN     =   0.10
     WC   =   100.;   INIMIX=   1;  MIXPRE=   1;  MAXMIX= -45

 Intra band minimization:
   WEIMIN = 0.0010     energy-eigenvalue tresh-hold
   EBREAK =  0.37E-06  absolut break condition
   DEPER  =   0.30     relativ break condition  

   TIME   =   0.40     timestep for ELM

  volume/ion in A,a.u.               =       8.16        55.09
  Fermi-wavevector in a.u.,A,eV,Ry     =   0.813041  1.536425  8.993935  0.661036
  Thomas-Fermi vector in A             =   1.922694
 
 Write flags
   LWAVE        =      T    write WAVECAR
   LDOWNSAMPLE  =      F    k-point downsampling of WAVECAR
   LCHARG       =      T    write CHGCAR
   LVTOT        =      F    write LOCPOT, total local potential
   LVHAR        =      F    write LOCPOT, Hartree potential only
   LELF         =      F    write electronic localiz. function (ELF)
   LORBIT       =      0    0 simple, 1 ext, 2 COOP (PROOUT), +10 PAW based schemes


 Dipole corrections
   LMONO  =      F    monopole corrections only (constant potential shift)
   LDIPOL =      F    correct potential (dipole corrections)
   IDIPOL =      0    1-x, 2-y, 3-z, 4-all directions 
   EPSILON=  1.0000000 bulk dielectric constant

 Exchange correlation treatment:
   GGA     = PE    functional components
   XC_C    = 1    coefficients multiplying the functional components
   LIBXC   =     F    Libxc                    
   VOSKOWN =     0    Vosko Wilk Nusair interpolation
   LHFCALC =     F    Hartree Fock is set to
   LHFONE  =     F    Hartree Fock one center treatment
   AEXX    =    0.0000 exact exchange contribution

 Parameters of functionals:
   PE:
     No parameter
 
 Linear response parameters
   LEPSILON=     F    determine dielectric tensor
   LRPA    =     F    only Hartree local field effects (RPA)
   LNABLA  =     F    use nabla operator in PAW spheres
   LVEL    =     F    velocity operator in full k-point grid
   CSHIFT  =0.1000    complex shift for real part using Kramers Kronig
   OMEGAMAX=  -1.0    maximum frequency
   DEG_THRESHOLD= 0.2000000E-02 threshold for treating states as degnerate
   RTIME   =   -0.100 relaxation time in fs
  (WPLASMAI=    0.000 imaginary part of plasma frequency in eV, 0.658/RTIME)
   DFIELD  = 0.0000000 0.0000000 0.0000000 field for delta impulse in time
 
  Optional k-point grid parameters
   LKPOINTS_OPT  =     F    use optional k-point grid
   KPOINTS_OPT_MODE=     1    mode for optional k-point grid
 
 Orbital magnetization related:
   ORBITALMAG=     F  switch on orbital magnetization
   LCHIMAG   =     F  perturbation theory with respect to B field
   DQ        =  0.001000  dq finite difference perturbation B field
   LLRAUG    =     F  two centre corrections for induced B field
   LBONE     =     F  B-component reconstruction in AE one-centre
   LVGVCALC  =     T  calculate vGv susceptibility
   LVGVAPPL  =     F  apply vGv susceptibility instead of pGv for G=0

 Random number generation:
   RANDOM_GENERATOR = DEFAULT
   PCG_SEED         = not used


--------------------------------------------------------------------------------------------------------


 molecular dynamics for ions
   using a microcanonical ensemble
 charge density and potential will be updated during run
 non-spin polarized calculation
 Variant of blocked Davidson
 Davidson routine will perform the subspace rotation
 perform sub-space diagonalisation
    after iterative eigenvector-optimisation
 modified Broyden-mixing scheme, WC =      100.0
 initial mixing is a Kerker type mixing with AMIX =  0.4000 and BMIX =      1.0000
 Hartree-type preconditioning will be used
 using additional bands           36
 reciprocal scheme for non local part
 use partial core corrections
 calculate Harris-corrections to forces 
   (improved forces if not selfconsistent)
 use gradient corrections 
 use of overlap-Matrix (Vanderbilt PP)
 Methfessel and Paxton  Order N= 1 SIGMA  =   0.20


--------------------------------------------------------------------------------------------------------


  energy-cutoff  :        1.00
  volume of cell :      522.48
      direct lattice vectors                 reciprocal lattice vectors
     8.054200000  0.000000000  0.000000000     0.124158824  0.000000000  0.000000000
     0.000000000  8.054200000  0.000000000     0.000000000  0.124158824  0.000000000
     0.000000000  0.000000000  8.054200000     0.000000000  0.000000000  0.124158824

  length of vectors
     8.054200000  8.054200000  8.054200000     0.124158824  0.124158824  0.124158824


 
 k-points in units of 2pi/SCALE and weight: read from INCAR                         
   0.00000000  0.00000000  0.00000000       1.000
 
 k-points in reciprocal lattice and weights: read from INCAR                         
   0.00000000  0.00000000  0.00000000       1.000
 
 position of ions in fractional coordinates (direct lattice) 
   0.79191855  0.73565440  0.73323635
   0.79898771  0.75524736  0.23967688
   0.78320953  0.24536445  0.70852545
   0.80695303  0.24500420  0.23507556
   0.31324704  0.76797888  0.73989927
   0.32442776  0.75537881  0.21682324
   0.27291353  0.23714956  0.71493803
   0.28990641  0.24855586  0.20875421
   0.26975323  0.54033360  0.96620076
   0.31473321  0.52405087  0.46781759
   0.28477332  0.01267560  0.95444108
   0.30580564  0.00118725  0.46208515
   0.81972437  0.47994004  0.97129195
   0.80556667  0.52914651  0.46940291
   0.78100731  0.99621700  0.95744815
   0.77541103  0.99848277  0.49503259
   0.04074694  0.26818106  0.95943624
   0.01293713  0.25204817  0.47833278
   0.03084316  0.77397039  0.97613179
   0.02699547  0.75080243  0.47139405
   0.55262728  0.26296119  0.95939529
   0.53544924  0.25746739  0.46791896
   0.53941057  0.74037287  0.98756773
   0.55626085  0.74712690  0.45948128
   0.04054373  0.51029018  0.21661804
   0.05099181  0.52578137  0.71905346
   0.06359227  0.02359198  0.22299501
   0.06551645  0.02978438  0.70143251
   0.55296249  0.51070776  0.22912247
   0.53929816  0.50977426  0.73161383
   0.54148245  0.00560792  0.21848384
   0.55408796  0.99035962  0.71535889
   0.01532968  0.51248219  0.95669276
   0.03325895  0.50902250  0.44233287
   0.03654002  0.01540151  0.95906051
   0.02447832  0.01020939  0.47319353
   0.50954965  0.50654739  0.99271031
   0.56192599  0.55037327  0.46946035
   0.51904898  0.00277662  0.97879020
   0.53466555  0.00681804  0.45540598
   0.03616631  0.27283974  0.74744233
   0.05258248  0.26597906  0.22102871
   0.05446036  0.77202561  0.70629817
   0.05222803  0.75997925  0.21956723
   0.53967311  0.28002997  0.70966334
   0.54034359  0.25902003  0.24481144
   0.56630717  0.78251578  0.74749512
   0.56516903  0.73288369  0.20366594
   0.30131128  0.50150177  0.73147335
   0.29111242  0.52212299  0.23658312
   0.28583706  0.99471442  0.74748267
   0.30790773  0.01337643  0.17929129
   0.78248000  0.50394626  0.71909502
   0.77708024  0.49067762  0.22990657
   0.77573960  0.01462436  0.71239892
   0.78601719  0.02071134  0.22943182
   0.27159325  0.75537874  0.97154264
   0.29053503  0.77867143  0.51557279
   0.28019853  0.24818882  0.95666553
   0.27570491  0.24363974  0.45642225
   0.80716561  0.75501708  0.97546917
   0.78560367  0.74700706  0.45615500
   0.79460156  0.24987939  0.98252260
   0.76117896  0.26720031  0.47462152
 
 position of ions in cartesian coordinates  (Angst):
   6.37827039  5.92510767  5.90563221
   6.43520681  6.08291329  1.93040553
   6.30812620  1.97621435  5.70660568
   6.49936109  1.97331283  1.89334558
   2.52295431  6.18545550  5.95929670
   2.61300606  6.08397201  1.74633774
   2.19810015  1.91004999  5.75825388
   2.33496421  2.00191861  1.68134816
   2.17264647  4.35195488  7.78197416
   2.53492422  4.22081052  3.76789643
   2.29362127  0.10209182  7.68725935
   2.46301979  0.00956235  3.72172622
   6.60222402  3.86553307  7.82297962
   6.48819507  4.26185182  3.78066492
   6.29038908  8.02373096  7.71147889
   6.24531552  8.04197993  3.98709149
   0.32818400  2.15998389  7.72749136
   0.10419823  2.03004637  3.85258788
   0.24841698  6.23371232  7.86196066
   0.21742691  6.04711293  3.79670196
   4.45097064  2.11794202  7.72716154
   4.31261527  2.07369385  3.76871289
   4.34452061  5.96311117  7.95406801
   4.48023614  6.01750948  3.70075413
   0.32654731  4.10997917  1.74468502
   0.41069824  4.23474831  5.79140038
   0.51218486  0.19001453  1.79604641
   0.52768259  0.23988935  5.64947772
   4.45367049  4.11334244  1.84539820
   4.34361524  4.10582384  5.89256411
   4.36120795  0.04516731  1.75971254
   4.46273525  7.97655445  5.76164357
   0.12346831  4.12763405  7.70539483
   0.26787424  4.09976902  3.56263740
   0.29430063  0.12404684  7.72446516
   0.19715328  0.08222847  3.81119533
   4.10401479  4.07983399  7.99548738
   4.52586431  4.43281639  3.78112755
   4.18052429  0.02236345  7.88337203
   4.30630327  0.05491386  3.66793084
   0.29129069  2.19750583  6.02005001
   0.42350981  2.14224855  1.78020944
   0.43863463  6.21804867  5.68866672
   0.42065500  6.12102488  1.76843838
   4.34663516  2.25541738  5.71577047
   4.35203534  2.08619913  1.97176030
   4.56115121  6.30253860  6.02047520
   4.55198440  5.90279182  1.64036621
   2.42682131  4.03919556  5.89143266
   2.34467765  4.20528299  1.90548777
   2.30218885  8.01162888  6.02037492
   2.47995044  0.10773644  1.44404791
   6.30225042  4.05888397  5.79173511
   6.25875967  3.95201569  1.85171350
   6.24796189  0.11778752  5.73780338
   6.33073965  0.16681327  1.84788976
   2.18746635  6.08397145  7.82499873
   2.34002724  6.27157543  4.15252637
   2.25677500  1.99896239  7.70517551
   2.22058249  1.96232319  3.67611609
   6.50107326  6.08105857  7.85662379
   6.32740908  6.01654426  3.67396360
   6.39987988  2.01257858  7.91343352
   6.13068758  2.15208474  3.82269665
 


--------------------------------------------------------------------------------------------------------


 use serial FFT for orbitals x direction half grid
 k-point   1 :   0.0000 0.0000 0.0000  plane waves:       1

 maximum and minimum number of plane-waves per node :         1        1

 maximum number of plane-waves:         1
 maximum index in each direction: 
   IXMAX=    0   IYMAX=    0   IZMAX=    0
   IXMIN=    0   IYMIN=    0   IZMIN=    0



--------------------------------------- Ionic step        1  -------------------------------------------


      MLFF:  cpu time      0.0146: real time      0.0146
           RANDOM_SEED =                10                0                0
           RANDOM_SEED =                10              768                0
   IONSTEP:  cpu time      0.0002: real time      0.0002

  ENERGY OF THE ELECTRON-ION-THERMOSTAT SYSTEM (eV)
  ---------------------------------------------------
% ion-electron   TOTEN  =      -188.579430  see above
  kinetic energy EKIN   =         2.599306
  kin. lattice  EKIN_LAT=         0.000000  (temperature  314.20 K)
  nose potential ES     =         0.000000
  nose kinetic   EPS    =         0.000000
  ---------------------------------------------------
  total energy   ETOTAL =      -185.980124 eV



--------------------------------------- Ionic step        2  -------------------------------------------


      MLFF:  cpu time      0.0110: real time      0.0110
     LOOP+:  cpu time      0.0258: real time      0.0258
           RANDOM_SEED =                10             1152                0
   IONSTEP:  cpu time      0.0001: real time      0.0001

  ENERGY OF THE ELECTRON-ION-THERMOSTAT SYSTEM (eV)
  ---------------------------------------------------
% ion-electron   TOTEN  =      -189.019476  see above
  kinetic energy EKIN   =         3.022804
  kin. lattice  EKIN_LAT=         0.000000  (temperature  365.40 K)
  nose potential ES     =         0.000000
  nose kinetic   EPS    =         0.000000
  ---------------------------------------------------
  total energy   ETOTAL =      -185.996672 eV



--------------------------------------- Ionic step        3  -------------------------------------------


      MLFF:  cpu time      0.0102: real time      0.0102
     LOOP+:  cpu time      0.0103: real time      0.0103
           RANDOM_SEED =                10             1536                0
   IONSTEP:  cpu time      0.0001: real time      0.0001

  ENERGY OF THE ELECTRON-ION-THERMOSTAT SYSTEM (eV)
  ---------------------------------------------------
% ion-electron   TOTEN  =      -189.422049  see above
  kinetic energy EKIN   =         3.390052
  kin. lattice  EKIN_LAT=         0.000000  (temperature  409.79 K)
  nose potential ES     =         0.000000
  nose kinetic   EPS    =         0.000000
  ---------------------------------------------------
  total energy   ETOTAL =      -186.031997 eV



--------------------------------------- Ionic step        4  -------------------------------------------


      MLFF:  cpu time      0.0103: real time      0.0103
     LOOP+:  cpu time      0.0103: real time      0.0103
           RANDOM_SEED =                10             1920                0
   IONSTEP:  cpu time      0.0001: real time      0.0001

  ENERGY OF THE ELECTRON-ION-THERMOSTAT SYSTEM (eV)
  ---------------------------------------------------
% ion-electron   TOTEN  =      -189.634192  see above
  kinetic energy EKIN   =         3.615231
  kin. lattice  EKIN_LAT=         0.000000  (temperature  437.01 K)
  nose potential ES     =         0.000000
  nose kinetic   EPS    =         0.000000
  ---------------------------------------------------
  total energy   ETOTAL =      -186.018960 eV



--------------------------------------- Ionic step        5  -------------------------------------------


      MLFF:  cpu time      0.0106: real time      0.0106
     LOOP+:  cpu time      0.0106: real time      0.0107
           RANDOM_SEED =                10             2304                0
   IONSTEP:  cpu time      0.0001: real time      0.0001

  ENERGY OF THE ELECTRON-ION-THERMOSTAT SYSTEM (eV)
  ---------------------------------------------------
% ion-electron   TOTEN  =      -189.640344  see above
  kinetic energy EKIN   =         3.638099
  kin. lattice  EKIN_LAT=         0.000000  (temperature  439.77 K)
  nose potential ES     =         0.000000
  nose kinetic   EPS    =         0.000000
  ---------------------------------------------------
  total energy   ETOTAL =      -186.002245 eV



--------------------------------------- Ionic step        6  -------------------------------------------


      MLFF:  cpu time      0.0132: real time      0.0132
     LOOP+:  cpu time      0.0132: real time      0.0132
           RANDOM_SEED =                10             2688                0
   IONSTEP:  cpu time      0.0001: real time      0.0001

  ENERGY OF THE ELECTRON-ION-THERMOSTAT SYSTEM (eV)
  ---------------------------------------------------
% ion-electron   TOTEN  =      -189.446582  see above
  kinetic energy EKIN   =         3.427347
  kin. lattice  EKIN_LAT=         0.000000  (temperature  414.30 K)
  nose potential ES     =         0.000000
  nose kinetic   EPS    =         0.000000
  ---------------------------------------------------
  total energy   ETOTAL =      -186.019235 eV



--------------------------------------- Ionic step        7  -------------------------------------------


      MLFF:  cpu time      0.0116: real time      0.0116
     LOOP+:  cpu time      0.0116: real time      0.0116
           RANDOM_SEED =                10             3072                0
   IONSTEP:  cpu time      0.0001: real time      0.0001

  ENERGY OF THE ELECTRON-ION-THERMOSTAT SYSTEM (eV)
  ---------------------------------------------------
% ion-electron   TOTEN  =      -189.253932  see above
  kinetic energy EKIN   =         3.228854
  kin. lattice  EKIN_LAT=         0.000000  (temperature  390.30 K)
  nose potential ES     =         0.000000
  nose kinetic   EPS    =         0.000000
  ---------------------------------------------------
  total energy   ETOTAL =      -186.025078 eV



--------------------------------------- Ionic step        8  -------------------------------------------


      MLFF:  cpu time      0.0113: real time      0.0113
     LOOP+:  cpu time      0.0114: real time      0.0114
           RANDOM_SEED =                10             3456                0
   IONSTEP:  cpu time      0.0001: real time      0.0001

  ENERGY OF THE ELECTRON-ION-THERMOSTAT SYSTEM (eV)
  ---------------------------------------------------
% ion-electron   TOTEN  =      -189.235109  see above
  kinetic energy EKIN   =         3.237393
  kin. lattice  EKIN_LAT=         0.000000  (temperature  391.33 K)
  nose potential ES     =         0.000000
  nose kinetic   EPS    =         0.000000
  ---------------------------------------------------
  total energy   ETOTAL =      -185.997716 eV



--------------------------------------- Ionic step        9  -------------------------------------------


      MLFF:  cpu time      0.0116: real time      0.0116
     LOOP+:  cpu time      0.0116: real time      0.0116
           RANDOM_SEED =                10             3840                0
   IONSTEP:  cpu time      0.0001: real time      0.0001

  ENERGY OF THE ELECTRON-ION-THERMOSTAT SYSTEM (eV)
  ---------------------------------------------------
% ion-electron   TOTEN  =      -189.423113  see above
  kinetic energy EKIN   =         3.408601
  kin. lattice  EKIN_LAT=         0.000000  (temperature  412.03 K)
  nose potential ES     =         0.000000
  nose kinetic   EPS    =         0.000000
  ---------------------------------------------------
  total energy   ETOTAL =      -186.014512 eV



--------------------------------------- Ionic step       10  -------------------------------------------


      MLFF:  cpu time      0.0109: real time      0.0109
     LOOP+:  cpu time      0.0110: real time      0.0110
           RANDOM_SEED =                10             4224                0
   IONSTEP:  cpu time      0.0001: real time      0.0001

  ENERGY OF THE ELECTRON-ION-THERMOSTAT SYSTEM (eV)
  ---------------------------------------------------
% ion-electron   TOTEN  =      -189.672076  see above
  kinetic energy EKIN   =         3.570496
  kin. lattice  EKIN_LAT=         0.000000  (temperature  431.60 K)
  nose potential ES     =         0.000000
  nose kinetic   EPS    =         0.000000
  ---------------------------------------------------
  total energy   ETOTAL =      -186.101580 eV



--------------------------------------- Ionic step       11  -------------------------------------------


      MLFF:  cpu time      0.0109: real time      0.0109
     LOOP+:  cpu time      0.0110: real time      0.0110
           RANDOM_SEED =                10             4608                0
   IONSTEP:  cpu time      0.0001: real time      0.0001

  ENERGY OF THE ELECTRON-ION-THERMOSTAT SYSTEM (eV)
  ---------------------------------------------------
% ion-electron   TOTEN  =      -189.896316  see above
  kinetic energy EKIN   =         3.769216
  kin. lattice  EKIN_LAT=         0.000000  (temperature  455.62 K)
  nose potential ES     =         0.000000
  nose kinetic   EPS    =         0.000000
  ---------------------------------------------------
  total energy   ETOTAL =      -186.127100 eV



--------------------------------------- Ionic step       12  -------------------------------------------


      MLFF:  cpu time      0.0131: real time      0.0131
     LOOP+:  cpu time      0.0131: real time      0.0131
           RANDOM_SEED =                10             4992                0
   IONSTEP:  cpu time      0.0001: real time      0.0001

  ENERGY OF THE ELECTRON-ION-THERMOSTAT SYSTEM (eV)
  ---------------------------------------------------
% ion-electron   TOTEN  =      -189.991396  see above
  kinetic energy EKIN   =         3.897625
  kin. lattice  EKIN_LAT=         0.000000  (temperature  471.14 K)
  nose potential ES     =         0.000000
  nose kinetic   EPS    =         0.000000
  ---------------------------------------------------
  total energy   ETOTAL =      -186.093770 eV



--------------------------------------- Ionic step       13  -------------------------------------------


      MLFF:  cpu time      0.0113: real time      0.0113
     LOOP+:  cpu time      0.0114: real time      0.0114
           RANDOM_SEED =                10             5376                0
   IONSTEP:  cpu time      0.0001: real time      0.0001

  ENERGY OF THE ELECTRON-ION-THERMOSTAT SYSTEM (eV)
  ---------------------------------------------------
% ion-electron   TOTEN  =      -189.907168  see above
  kinetic energy EKIN   =         3.819762
  kin. lattice  EKIN_LAT=         0.000000  (temperature  461.73 K)
  nose potential ES     =         0.000000
  nose kinetic   EPS    =         0.000000
  ---------------------------------------------------
  total energy   ETOTAL =      -186.087406 eV



--------------------------------------- Ionic step       14  -------------------------------------------


      MLFF:  cpu time      0.0135: real time      0.0135
     LOOP+:  cpu time      0.0136: real time      0.0136
           RANDOM_SEED =                10             5760                0
   IONSTEP:  cpu time      0.0001: real time      0.0001

  ENERGY OF THE ELECTRON-ION-THERMOSTAT SYSTEM (eV)
  ---------------------------------------------------
% ion-electron   TOTEN  =      -189.687300  see above
  kinetic energy EKIN   =         3.585408
  kin. lattice  EKIN_LAT=         0.000000  (temperature  433.40 K)
  nose potential ES     =         0.000000
  nose kinetic   EPS    =         0.000000
  ---------------------------------------------------
  total energy   ETOTAL =      -186.101892 eV



--------------------------------------- Ionic step       15  -------------------------------------------


      MLFF:  cpu time      0.0109: real time      0.0109
     LOOP+:  cpu time      0.0110: real time      0.0110
           RANDOM_SEED =                10             6144                0
   IONSTEP:  cpu time      0.0001: real time      0.0001

  ENERGY OF THE ELECTRON-ION-THERMOSTAT SYSTEM (eV)
  ---------------------------------------------------
% ion-electron   TOTEN  =      -189.442936  see above
  kinetic energy EKIN   =         3.334559
  kin. lattice  EKIN_LAT=         0.000000  (temperature  403.08 K)
  nose potential ES     =         0.000000
  nose kinetic   EPS    =         0.000000
  ---------------------------------------------------
  total energy   ETOTAL =      -186.108378 eV



--------------------------------------- Ionic step       16  -------------------------------------------


      MLFF:  cpu time      0.0147: real time      0.0147
     LOOP+:  cpu time      0.0147: real time      0.0147
           RANDOM_SEED =                10             6528                0
   IONSTEP:  cpu time      0.0001: real time      0.0001

  ENERGY OF THE ELECTRON-ION-THERMOSTAT SYSTEM (eV)
  ---------------------------------------------------
% ion-electron   TOTEN  =      -189.280020  see above
  kinetic energy EKIN   =         3.185261
  kin. lattice  EKIN_LAT=         0.000000  (temperature  385.03 K)
  nose potential ES     =         0.000000
  nose kinetic   EPS    =         0.000000
  ---------------------------------------------------
  total energy   ETOTAL =      -186.094759 eV



--------------------------------------- Ionic step       17  -------------------------------------------


      MLFF:  cpu time      0.0105: real time      0.0105
     LOOP+:  cpu time      0.0105: real time      0.0105
           RANDOM_SEED =                10             6912                0
   IONSTEP:  cpu time      0.0001: real time      0.0001

  ENERGY OF THE ELECTRON-ION-THERMOSTAT SYSTEM (eV)
  ---------------------------------------------------
% ion-electron   TOTEN  =      -189.189477  see above
  kinetic energy EKIN   =         3.117583
  kin. lattice  EKIN_LAT=         0.000000  (temperature  376.85 K)
  nose potential ES     =         0.000000
  nose kinetic   EPS    =         0.000000
  ---------------------------------------------------
  total energy   ETOTAL =      -186.071894 eV



--------------------------------------- Ionic step       18  -------------------------------------------


      MLFF:  cpu time      0.0104: real time      0.0104
     LOOP+:  cpu time      0.0104: real time      0.0105
           RANDOM_SEED =                10             7296                0
   IONSTEP:  cpu time      0.0001: real time      0.0001

  ENERGY OF THE ELECTRON-ION-THERMOSTAT SYSTEM (eV)
  ---------------------------------------------------
% ion-electron   TOTEN  =      -189.095565  see above
  kinetic energy EKIN   =         3.044206
  kin. lattice  EKIN_LAT=         0.000000  (temperature  367.98 K)
  nose potential ES     =         0.000000
  nose kinetic   EPS    =         0.000000
  ---------------------------------------------------
  total energy   ETOTAL =      -186.051359 eV



--------------------------------------- Ionic step       19  -------------------------------------------


      MLFF:  cpu time      0.0104: real time      0.0104
     LOOP+:  cpu time      0.0105: real time      0.0105
           RANDOM_SEED =                10             7680                0
   IONSTEP:  cpu time      0.0001: real time      0.0001

  ENERGY OF THE ELECTRON-ION-THERMOSTAT SYSTEM (eV)
  ---------------------------------------------------
% ion-electron   TOTEN  =      -188.948819  see above
  kinetic energy EKIN   =         2.894755
  kin. lattice  EKIN_LAT=         0.000000  (temperature  349.92 K)
  nose potential ES     =         0.000000
  nose kinetic   EPS    =         0.000000
  ---------------------------------------------------
  total energy   ETOTAL =      -186.054064 eV



--------------------------------------- Ionic step       20  -------------------------------------------


      MLFF:  cpu time      0.0106: real time      0.0106
     LOOP+:  cpu time      0.0106: real time      0.0106
           RANDOM_SEED =                10             8064                0
   IONSTEP:  cpu time      0.0001: real time      0.0001

  ENERGY OF THE ELECTRON-ION-THERMOSTAT SYSTEM (eV)
  ---------------------------------------------------
% ion-electron   TOTEN  =      -188.803255  see above
  kinetic energy EKIN   =         2.708160
  kin. lattice  EKIN_LAT=         0.000000  (temperature  327.36 K)
  nose potential ES     =         0.000000
  nose kinetic   EPS    =         0.000000
  ---------------------------------------------------
  total energy   ETOTAL =      -186.095095 eV



--------------------------------------- Ionic step       21  -------------------------------------------


      MLFF:  cpu time      0.0105: real time      0.0105
     LOOP+:  cpu time      0.0106: real time      0.0106
           RANDOM_SEED =                10             8448                0
   IONSTEP:  cpu time      0.0001: real time      0.0001

  ENERGY OF THE ELECTRON-ION-THERMOSTAT SYSTEM (eV)
  ---------------------------------------------------
% ion-electron   TOTEN  =      -188.701280  see above
  kinetic energy EKIN   =         2.553211
  kin. lattice  EKIN_LAT=         0.000000  (temperature  308.63 K)
  nose potential ES     =         0.000000
  nose kinetic   EPS    =         0.000000
  ---------------------------------------------------
  total energy   ETOTAL =      -186.148068 eV



--------------------------------------- Ionic step       22  -------------------------------------------


      MLFF:  cpu time      0.0131: real time      0.0131
     LOOP+:  cpu time      0.0131: real time      0.0131
           RANDOM_SEED =                10             8832                0
   IONSTEP:  cpu time      0.0001: real time      0.0001

  ENERGY OF THE ELECTRON-ION-THERMOSTAT SYSTEM (eV)
  ---------------------------------------------------
% ion-electron   TOTEN  =      -188.689050  see above
  kinetic energy EKIN   =         2.474212
  kin. lattice  EKIN_LAT=         0.000000  (temperature  299.08 K)
  nose potential ES     =         0.000000
  nose kinetic   EPS    =         0.000000
  ---------------------------------------------------
  total energy   ETOTAL =      -186.214838 eV



--------------------------------------- Ionic step       23  -------------------------------------------


      MLFF:  cpu time      0.0112: real time      0.0112
     LOOP+:  cpu time      0.0113: real time      0.0113
           RANDOM_SEED =                10             9216                0
   IONSTEP:  cpu time      0.0001: real time      0.0001

  ENERGY OF THE ELECTRON-ION-THERMOSTAT SYSTEM (eV)
  ---------------------------------------------------
% ion-electron   TOTEN  =      -188.764341  see above
  kinetic energy EKIN   =         2.493790
  kin. lattice  EKIN_LAT=         0.000000  (temperature  301.45 K)
  nose potential ES     =         0.000000
  nose kinetic   EPS    =         0.000000
  ---------------------------------------------------
  total energy   ETOTAL =      -186.270552 eV



--------------------------------------- Ionic step       24  -------------------------------------------


      MLFF:  cpu time      0.0108: real time      0.0137
     LOOP+:  cpu time      0.0109: real time      0.0137
           RANDOM_SEED =                10             9600                0
   IONSTEP:  cpu time      0.0001: real time      0.0001

  ENERGY OF THE ELECTRON-ION-THERMOSTAT SYSTEM (eV)
  ---------------------------------------------------
% ion-electron   TOTEN  =      -188.865508  see above
  kinetic energy EKIN   =         2.581942
  kin. lattice  EKIN_LAT=         0.000000  (temperature  312.10 K)
  nose potential ES     =         0.000000
  nose kinetic   EPS    =         0.000000
  ---------------------------------------------------
  total energy   ETOTAL =      -186.283566 eV



--------------------------------------- Ionic step       25  -------------------------------------------


      MLFF:  cpu time      0.0104: real time      0.0104
     LOOP+:  cpu time      0.0104: real time      0.0104
           RANDOM_SEED =                10             9984                0
   IONSTEP:  cpu time      0.0001: real time      0.0001

  ENERGY OF THE ELECTRON-ION-THERMOSTAT SYSTEM (eV)
  ---------------------------------------------------
% ion-electron   TOTEN  =      -188.960607  see above
  kinetic energy EKIN   =         2.659593
  kin. lattice  EKIN_LAT=         0.000000  (temperature  321.49 K)
  nose potential ES     =         0.000000
  nose kinetic   EPS    =         0.000000
  ---------------------------------------------------
  total energy   ETOTAL =      -186.301014 eV



--------------------------------------- Ionic step       26  -------------------------------------------


      MLFF:  cpu time      0.0104: real time      0.0104
     LOOP+:  cpu time      0.0104: real time      0.0104
           RANDOM_SEED =                10            10368                0
   IONSTEP:  cpu time      0.0001: real time      0.0001

  ENERGY OF THE ELECTRON-ION-THERMOSTAT SYSTEM (eV)
  ---------------------------------------------------
% ion-electron   TOTEN  =      -189.057984  see above
  kinetic energy EKIN   =         2.712107
  kin. lattice  EKIN_LAT=         0.000000  (temperature  327.84 K)
  nose potential ES     =         0.000000
  nose kinetic   EPS    =         0.000000
  ---------------------------------------------------
  total energy   ETOTAL =      -186.345877 eV



--------------------------------------- Ionic step       27  -------------------------------------------


      MLFF:  cpu time      0.0102: real time      0.0102
     LOOP+:  cpu time      0.0103: real time      0.0103
           RANDOM_SEED =                10            10752                0
   IONSTEP:  cpu time      0.0001: real time      0.0001

  ENERGY OF THE ELECTRON-ION-THERMOSTAT SYSTEM (eV)
  ---------------------------------------------------
% ion-electron   TOTEN  =      -189.155222  see above
  kinetic energy EKIN   =         2.779534
  kin. lattice  EKIN_LAT=         0.000000  (temperature  335.99 K)
  nose potential ES     =         0.000000
  nose kinetic   EPS    =         0.000000
  ---------------------------------------------------
  total energy   ETOTAL =      -186.375688 eV



--------------------------------------- Ionic step       28  -------------------------------------------


      MLFF:  cpu time      0.0102: real time      0.0102
     LOOP+:  cpu time      0.0103: real time      0.0103
           RANDOM_SEED =                10            11136                0
   IONSTEP:  cpu time      0.0001: real time      0.0001

  ENERGY OF THE ELECTRON-ION-THERMOSTAT SYSTEM (eV)
  ---------------------------------------------------
% ion-electron   TOTEN  =      -189.226657  see above
  kinetic energy EKIN   =         2.850254
  kin. lattice  EKIN_LAT=         0.000000  (temperature  344.54 K)
  nose potential ES     =         0.000000
  nose kinetic   EPS    =         0.000000
  ---------------------------------------------------
  total energy   ETOTAL =      -186.376403 eV



--------------------------------------- Ionic step       29  -------------------------------------------


      MLFF:  cpu time      0.0102: real time      0.0102
     LOOP+:  cpu time      0.0103: real time      0.0103
           RANDOM_SEED =                10            11520                0
   IONSTEP:  cpu time      0.0001: real time      0.0001

  ENERGY OF THE ELECTRON-ION-THERMOSTAT SYSTEM (eV)
  ---------------------------------------------------
% ion-electron   TOTEN  =      -189.242631  see above
  kinetic energy EKIN   =         2.855596
  kin. lattice  EKIN_LAT=         0.000000  (temperature  345.18 K)
  nose potential ES     =         0.000000
  nose kinetic   EPS    =         0.000000
  ---------------------------------------------------
  total energy   ETOTAL =      -186.387035 eV



--------------------------------------- Ionic step       30  -------------------------------------------


      MLFF:  cpu time      0.0102: real time      0.0102
     LOOP+:  cpu time      0.0103: real time      0.0103
           RANDOM_SEED =                10            11904                0
   IONSTEP:  cpu time      0.0001: real time      0.0001

  ENERGY OF THE ELECTRON-ION-THERMOSTAT SYSTEM (eV)
  ---------------------------------------------------
% ion-electron   TOTEN  =      -189.207054  see above
  kinetic energy EKIN   =         2.856416
  kin. lattice  EKIN_LAT=         0.000000  (temperature  345.28 K)
  nose potential ES     =         0.000000
  nose kinetic   EPS    =         0.000000
  ---------------------------------------------------
  total energy   ETOTAL =      -186.350638 eV



--------------------------------------- Ionic step       31  -------------------------------------------


      MLFF:  cpu time      0.0103: real time      0.0103
     LOOP+:  cpu time      0.0104: real time      0.0104
           RANDOM_SEED =                10            12288                0
   IONSTEP:  cpu time      0.0001: real time      0.0001

  ENERGY OF THE ELECTRON-ION-THERMOSTAT SYSTEM (eV)
  ---------------------------------------------------
% ion-electron   TOTEN  =      -189.147591  see above
  kinetic energy EKIN   =         2.848399
  kin. lattice  EKIN_LAT=         0.000000  (temperature  344.31 K)
  nose potential ES     =         0.000000
  nose kinetic   EPS    =         0.000000
  ---------------------------------------------------
  total energy   ETOTAL =      -186.299192 eV



--------------------------------------- Ionic step       32  -------------------------------------------


      MLFF:  cpu time      0.0103: real time      0.0103
     LOOP+:  cpu time      0.0104: real time      0.0104
           RANDOM_SEED =                10            12672                0
   IONSTEP:  cpu time      0.0001: real time      0.0001

  ENERGY OF THE ELECTRON-ION-THERMOSTAT SYSTEM (eV)
  ---------------------------------------------------
% ion-electron   TOTEN  =      -189.170408  see above
  kinetic energy EKIN   =         2.887093
  kin. lattice  EKIN_LAT=         0.000000  (temperature  348.99 K)
  nose potential ES     =         0.000000
  nose kinetic   EPS    =         0.000000
  ---------------------------------------------------
  total energy   ETOTAL =      -186.283315 eV



--------------------------------------- Ionic step       33  -------------------------------------------


      MLFF:  cpu time      0.0103: real time      0.0104
     LOOP+:  cpu time      0.0104: real time      0.0104
           RANDOM_SEED =                10            13056                0
   IONSTEP:  cpu time      0.0001: real time      0.0001

  ENERGY OF THE ELECTRON-ION-THERMOSTAT SYSTEM (eV)
  ---------------------------------------------------
% ion-electron   TOTEN  =      -189.284791  see above
  kinetic energy EKIN   =         3.019759
  kin. lattice  EKIN_LAT=         0.000000  (temperature  365.03 K)
  nose potential ES     =         0.000000
  nose kinetic   EPS    =         0.000000
  ---------------------------------------------------
  total energy   ETOTAL =      -186.265032 eV



--------------------------------------- Ionic step       34  -------------------------------------------


      MLFF:  cpu time      0.0104: real time      0.0104
     LOOP+:  cpu time      0.0105: real time      0.0105
           RANDOM_SEED =                10            13440                0
   IONSTEP:  cpu time      0.0001: real time      0.0001

  ENERGY OF THE ELECTRON-ION-THERMOSTAT SYSTEM (eV)
  ---------------------------------------------------
% ion-electron   TOTEN  =      -189.511051  see above
  kinetic energy EKIN   =         3.241436
  kin. lattice  EKIN_LAT=         0.000000  (temperature  391.82 K)
  nose potential ES     =         0.000000
  nose kinetic   EPS    =         0.000000
  ---------------------------------------------------
  total energy   ETOTAL =      -186.269615 eV



--------------------------------------- Ionic step       35  -------------------------------------------


      MLFF:  cpu time      0.0102: real time      0.0102
     LOOP+:  cpu time      0.0103: real time      0.0103
           RANDOM_SEED =                10            13824                0
   IONSTEP:  cpu time      0.0001: real time      0.0001

  ENERGY OF THE ELECTRON-ION-THERMOSTAT SYSTEM (eV)
  ---------------------------------------------------
% ion-electron   TOTEN  =      -189.760260  see above
  kinetic energy EKIN   =         3.459607
  kin. lattice  EKIN_LAT=         0.000000  (temperature  418.20 K)
  nose potential ES     =         0.000000
  nose kinetic   EPS    =         0.000000
  ---------------------------------------------------
  total energy   ETOTAL =      -186.300653 eV



--------------------------------------- Ionic step       36  -------------------------------------------


      MLFF:  cpu time      0.0103: real time      0.0103
     LOOP+:  cpu time      0.0104: real time      0.0104
           RANDOM_SEED =                10            14208                0
   IONSTEP:  cpu time      0.0001: real time      0.0001

  ENERGY OF THE ELECTRON-ION-THERMOSTAT SYSTEM (eV)
  ---------------------------------------------------
% ion-electron   TOTEN  =      -189.960102  see above
  kinetic energy EKIN   =         3.657011
  kin. lattice  EKIN_LAT=         0.000000  (temperature  442.06 K)
  nose potential ES     =         0.000000
  nose kinetic   EPS    =         0.000000
  ---------------------------------------------------
  total energy   ETOTAL =      -186.303092 eV



--------------------------------------- Ionic step       37  -------------------------------------------


      MLFF:  cpu time      0.0103: real time      0.0103
     LOOP+:  cpu time      0.0103: real time      0.0103
           RANDOM_SEED =                10            14592                0
   IONSTEP:  cpu time      0.0001: real time      0.0001

  ENERGY OF THE ELECTRON-ION-THERMOSTAT SYSTEM (eV)
  ---------------------------------------------------
% ion-electron   TOTEN  =      -190.017046  see above
  kinetic energy EKIN   =         3.689701
  kin. lattice  EKIN_LAT=         0.000000  (temperature  446.01 K)
  nose potential ES     =         0.000000
  nose kinetic   EPS    =         0.000000
  ---------------------------------------------------
  total energy   ETOTAL =      -186.327345 eV



--------------------------------------- Ionic step       38  -------------------------------------------


      MLFF:  cpu time      0.0102: real time      0.0102
     LOOP+:  cpu time      0.0103: real time      0.0103
           RANDOM_SEED =                10            14976                0
   IONSTEP:  cpu time      0.0001: real time      0.0001

  ENERGY OF THE ELECTRON-ION-THERMOSTAT SYSTEM (eV)
  ---------------------------------------------------
% ion-electron   TOTEN  =      -189.890858  see above
  kinetic energy EKIN   =         3.531596
  kin. lattice  EKIN_LAT=         0.000000  (temperature  426.90 K)
  nose potential ES     =         0.000000
  nose kinetic   EPS    =         0.000000
  ---------------------------------------------------
  total energy   ETOTAL =      -186.359262 eV



--------------------------------------- Ionic step       39  -------------------------------------------


      MLFF:  cpu time      0.0101: real time      0.0101
     LOOP+:  cpu time      0.0101: real time      0.0101
           RANDOM_SEED =                10            15360                0
   IONSTEP:  cpu time      0.0001: real time      0.0001

  ENERGY OF THE ELECTRON-ION-THERMOSTAT SYSTEM (eV)
  ---------------------------------------------------
% ion-electron   TOTEN  =      -189.636192  see above
  kinetic energy EKIN   =         3.286588
  kin. lattice  EKIN_LAT=         0.000000  (temperature  397.28 K)
  nose potential ES     =         0.000000
  nose kinetic   EPS    =         0.000000
  ---------------------------------------------------
  total energy   ETOTAL =      -186.349604 eV



--------------------------------------- Ionic step       40  -------------------------------------------


      MLFF:  cpu time      0.0105: real time      0.0105
     LOOP+:  cpu time      0.0106: real time      0.0106
           RANDOM_SEED =                10            15744                0
   IONSTEP:  cpu time      0.0001: real time      0.0001

  ENERGY OF THE ELECTRON-ION-THERMOSTAT SYSTEM (eV)
  ---------------------------------------------------
% ion-electron   TOTEN  =      -189.343129  see above
  kinetic energy EKIN   =         3.003176
  kin. lattice  EKIN_LAT=         0.000000  (temperature  363.02 K)
  nose potential ES     =         0.000000
  nose kinetic   EPS    =         0.000000
  ---------------------------------------------------
  total energy   ETOTAL =      -186.339953 eV



--------------------------------------- Ionic step       41  -------------------------------------------


      MLFF:  cpu time      0.0102: real time      0.0102
     LOOP+:  cpu time      0.0103: real time      0.0103
           RANDOM_SEED =                10            16128                0
   IONSTEP:  cpu time      0.0001: real time      0.0001

  ENERGY OF THE ELECTRON-ION-THERMOSTAT SYSTEM (eV)
  ---------------------------------------------------
% ion-electron   TOTEN  =      -189.114902  see above
  kinetic energy EKIN   =         2.758001
  kin. lattice  EKIN_LAT=         0.000000  (temperature  333.39 K)
  nose potential ES     =         0.000000
  nose kinetic   EPS    =         0.000000
  ---------------------------------------------------
  total energy   ETOTAL =      -186.356901 eV



--------------------------------------- Ionic step       42  -------------------------------------------


      MLFF:  cpu time      0.0103: real time      0.0103
     LOOP+:  cpu time      0.0104: real time      0.0104
           RANDOM_SEED =                10            16512                0
   IONSTEP:  cpu time      0.0001: real time      0.0001

  ENERGY OF THE ELECTRON-ION-THERMOSTAT SYSTEM (eV)
  ---------------------------------------------------
% ion-electron   TOTEN  =      -189.081794  see above
  kinetic energy EKIN   =         2.721903
  kin. lattice  EKIN_LAT=         0.000000  (temperature  329.02 K)
  nose potential ES     =         0.000000
  nose kinetic   EPS    =         0.000000
  ---------------------------------------------------
  total energy   ETOTAL =      -186.359890 eV



--------------------------------------- Ionic step       43  -------------------------------------------


      MLFF:  cpu time      0.0105: real time      0.0105
     LOOP+:  cpu time      0.0106: real time      0.0106
           RANDOM_SEED =                10            16896                0
   IONSTEP:  cpu time      0.0001: real time      0.0001

  ENERGY OF THE ELECTRON-ION-THERMOSTAT SYSTEM (eV)
  ---------------------------------------------------
% ion-electron   TOTEN  =      -189.237035  see above
  kinetic energy EKIN   =         2.869791
  kin. lattice  EKIN_LAT=         0.000000  (temperature  346.90 K)
  nose potential ES     =         0.000000
  nose kinetic   EPS    =         0.000000
  ---------------------------------------------------
  total energy   ETOTAL =      -186.367245 eV



--------------------------------------- Ionic step       44  -------------------------------------------


      MLFF:  cpu time      0.0103: real time      0.0103
     LOOP+:  cpu time      0.0104: real time      0.0104
           RANDOM_SEED =                10            17280                0
   IONSTEP:  cpu time      0.0001: real time      0.0001

  ENERGY OF THE ELECTRON-ION-THERMOSTAT SYSTEM (eV)
  ---------------------------------------------------
% ion-electron   TOTEN  =      -189.483717  see above
  kinetic energy EKIN   =         3.046241
  kin. lattice  EKIN_LAT=         0.000000  (temperature  368.23 K)
  nose potential ES     =         0.000000
  nose kinetic   EPS    =         0.000000
  ---------------------------------------------------
  total energy   ETOTAL =      -186.437476 eV



--------------------------------------- Ionic step       45  -------------------------------------------


      MLFF:  cpu time      0.0105: real time      0.0105
     LOOP+:  cpu time      0.0106: real time      0.0106
           RANDOM_SEED =                10            17664                0
   IONSTEP:  cpu time      0.0001: real time      0.0001

  ENERGY OF THE ELECTRON-ION-THERMOSTAT SYSTEM (eV)
  ---------------------------------------------------
% ion-electron   TOTEN  =      -189.721534  see above
  kinetic energy EKIN   =         3.206285
  kin. lattice  EKIN_LAT=         0.000000  (temperature  387.57 K)
  nose potential ES     =         0.000000
  nose kinetic   EPS    =         0.000000
  ---------------------------------------------------
  total energy   ETOTAL =      -186.515249 eV



--------------------------------------- Ionic step       46  -------------------------------------------


[...]
  kin. lattice  EKIN_LAT=         0.000000  (temperature  298.74 K)
  nose potential ES     =         0.000000
  nose kinetic   EPS    =         0.000000
  ---------------------------------------------------
  total energy   ETOTAL =      -187.387384 eV



--------------------------------------- Ionic step      987  -------------------------------------------


      MLFF:  cpu time      0.0107: real time      0.0107
     LOOP+:  cpu time      0.0108: real time      0.0108
           RANDOM_SEED =                10           379392                0
   IONSTEP:  cpu time      0.0001: real time      0.0001

  ENERGY OF THE ELECTRON-ION-THERMOSTAT SYSTEM (eV)
  ---------------------------------------------------
% ion-electron   TOTEN  =      -189.832983  see above
  kinetic energy EKIN   =         2.415201
  kin. lattice  EKIN_LAT=         0.000000  (temperature  291.95 K)
  nose potential ES     =         0.000000
  nose kinetic   EPS    =         0.000000
  ---------------------------------------------------
  total energy   ETOTAL =      -187.417782 eV



--------------------------------------- Ionic step      988  -------------------------------------------


      MLFF:  cpu time      0.0105: real time      0.0105
     LOOP+:  cpu time      0.0106: real time      0.0106
           RANDOM_SEED =                10           379776                0
   IONSTEP:  cpu time      0.0001: real time      0.0001

  ENERGY OF THE ELECTRON-ION-THERMOSTAT SYSTEM (eV)
  ---------------------------------------------------
% ion-electron   TOTEN  =      -189.884063  see above
  kinetic energy EKIN   =         2.417813
  kin. lattice  EKIN_LAT=         0.000000  (temperature  292.26 K)
  nose potential ES     =         0.000000
  nose kinetic   EPS    =         0.000000
  ---------------------------------------------------
  total energy   ETOTAL =      -187.466250 eV



--------------------------------------- Ionic step      989  -------------------------------------------


      MLFF:  cpu time      0.0103: real time      0.0103
     LOOP+:  cpu time      0.0104: real time      0.0104
           RANDOM_SEED =                10           380160                0
   IONSTEP:  cpu time      0.0001: real time      0.0001

  ENERGY OF THE ELECTRON-ION-THERMOSTAT SYSTEM (eV)
  ---------------------------------------------------
% ion-electron   TOTEN  =      -189.975469  see above
  kinetic energy EKIN   =         2.500448
  kin. lattice  EKIN_LAT=         0.000000  (temperature  302.25 K)
  nose potential ES     =         0.000000
  nose kinetic   EPS    =         0.000000
  ---------------------------------------------------
  total energy   ETOTAL =      -187.475021 eV



--------------------------------------- Ionic step      990  -------------------------------------------


      MLFF:  cpu time      0.0107: real time      0.0107
     LOOP+:  cpu time      0.0107: real time      0.0107
           RANDOM_SEED =                10           380544                0
   IONSTEP:  cpu time      0.0001: real time      0.0001

  ENERGY OF THE ELECTRON-ION-THERMOSTAT SYSTEM (eV)
  ---------------------------------------------------
% ion-electron   TOTEN  =      -190.071149  see above
  kinetic energy EKIN   =         2.606275
  kin. lattice  EKIN_LAT=         0.000000  (temperature  315.05 K)
  nose potential ES     =         0.000000
  nose kinetic   EPS    =         0.000000
  ---------------------------------------------------
  total energy   ETOTAL =      -187.464874 eV



--------------------------------------- Ionic step      991  -------------------------------------------


      MLFF:  cpu time      0.0102: real time      0.0102
     LOOP+:  cpu time      0.0103: real time      0.0103
           RANDOM_SEED =                10           380928                0
   IONSTEP:  cpu time      0.0001: real time      0.0001

  ENERGY OF THE ELECTRON-ION-THERMOSTAT SYSTEM (eV)
  ---------------------------------------------------
% ion-electron   TOTEN  =      -190.145702  see above
  kinetic energy EKIN   =         2.694193
  kin. lattice  EKIN_LAT=         0.000000  (temperature  325.67 K)
  nose potential ES     =         0.000000
  nose kinetic   EPS    =         0.000000
  ---------------------------------------------------
  total energy   ETOTAL =      -187.451509 eV



--------------------------------------- Ionic step      992  -------------------------------------------


      MLFF:  cpu time      0.0103: real time      0.0103
     LOOP+:  cpu time      0.0104: real time      0.0104
           RANDOM_SEED =                10           381312                0
   IONSTEP:  cpu time      0.0001: real time      0.0001

  ENERGY OF THE ELECTRON-ION-THERMOSTAT SYSTEM (eV)
  ---------------------------------------------------
% ion-electron   TOTEN  =      -190.171625  see above
  kinetic energy EKIN   =         2.748672
  kin. lattice  EKIN_LAT=         0.000000  (temperature  332.26 K)
  nose potential ES     =         0.000000
  nose kinetic   EPS    =         0.000000
  ---------------------------------------------------
  total energy   ETOTAL =      -187.422952 eV



--------------------------------------- Ionic step      993  -------------------------------------------


      MLFF:  cpu time      0.0103: real time      0.0103
     LOOP+:  cpu time      0.0104: real time      0.0104
           RANDOM_SEED =                10           381696                0
   IONSTEP:  cpu time      0.0001: real time      0.0001

  ENERGY OF THE ELECTRON-ION-THERMOSTAT SYSTEM (eV)
  ---------------------------------------------------
% ion-electron   TOTEN  =      -190.147463  see above
  kinetic energy EKIN   =         2.756996
  kin. lattice  EKIN_LAT=         0.000000  (temperature  333.26 K)
  nose potential ES     =         0.000000
  nose kinetic   EPS    =         0.000000
  ---------------------------------------------------
  total energy   ETOTAL =      -187.390467 eV



--------------------------------------- Ionic step      994  -------------------------------------------


      MLFF:  cpu time      0.0102: real time      0.0102
     LOOP+:  cpu time      0.0102: real time      0.0102
           RANDOM_SEED =                10           382080                0
   IONSTEP:  cpu time      0.0001: real time      0.0001

  ENERGY OF THE ELECTRON-ION-THERMOSTAT SYSTEM (eV)
  ---------------------------------------------------
% ion-electron   TOTEN  =      -190.092289  see above
  kinetic energy EKIN   =         2.725204
  kin. lattice  EKIN_LAT=         0.000000  (temperature  329.42 K)
  nose potential ES     =         0.000000
  nose kinetic   EPS    =         0.000000
  ---------------------------------------------------
  total energy   ETOTAL =      -187.367085 eV



--------------------------------------- Ionic step      995  -------------------------------------------


      MLFF:  cpu time      0.0104: real time      0.0104
     LOOP+:  cpu time      0.0105: real time      0.0105
           RANDOM_SEED =                10           382464                0
   IONSTEP:  cpu time      0.0001: real time      0.0001

  ENERGY OF THE ELECTRON-ION-THERMOSTAT SYSTEM (eV)
  ---------------------------------------------------
% ion-electron   TOTEN  =      -189.998149  see above
  kinetic energy EKIN   =         2.640420
  kin. lattice  EKIN_LAT=         0.000000  (temperature  319.17 K)
  nose potential ES     =         0.000000
  nose kinetic   EPS    =         0.000000
  ---------------------------------------------------
  total energy   ETOTAL =      -187.357729 eV



--------------------------------------- Ionic step      996  -------------------------------------------


      MLFF:  cpu time      0.0102: real time      0.0102
     LOOP+:  cpu time      0.0102: real time      0.0102
           RANDOM_SEED =                10           382848                0
   IONSTEP:  cpu time      0.0001: real time      0.0001

  ENERGY OF THE ELECTRON-ION-THERMOSTAT SYSTEM (eV)
  ---------------------------------------------------
% ion-electron   TOTEN  =      -189.887383  see above
  kinetic energy EKIN   =         2.553764
  kin. lattice  EKIN_LAT=         0.000000  (temperature  308.70 K)
  nose potential ES     =         0.000000
  nose kinetic   EPS    =         0.000000
  ---------------------------------------------------
  total energy   ETOTAL =      -187.333619 eV



--------------------------------------- Ionic step      997  -------------------------------------------


      MLFF:  cpu time      0.0103: real time      0.0103
     LOOP+:  cpu time      0.0103: real time      0.0103
           RANDOM_SEED =                10           383232                0
   IONSTEP:  cpu time      0.0001: real time      0.0001

  ENERGY OF THE ELECTRON-ION-THERMOSTAT SYSTEM (eV)
  ---------------------------------------------------
% ion-electron   TOTEN  =      -189.797757  see above
  kinetic energy EKIN   =         2.508639
  kin. lattice  EKIN_LAT=         0.000000  (temperature  303.24 K)
  nose potential ES     =         0.000000
  nose kinetic   EPS    =         0.000000
  ---------------------------------------------------
  total energy   ETOTAL =      -187.289118 eV



--------------------------------------- Ionic step      998  -------------------------------------------


      MLFF:  cpu time      0.0103: real time      0.0103
     LOOP+:  cpu time      0.0104: real time      0.0104
           RANDOM_SEED =                10           383616                0
   IONSTEP:  cpu time      0.0001: real time      0.0001

  ENERGY OF THE ELECTRON-ION-THERMOSTAT SYSTEM (eV)
  ---------------------------------------------------
% ion-electron   TOTEN  =      -189.746288  see above
  kinetic energy EKIN   =         2.488521
  kin. lattice  EKIN_LAT=         0.000000  (temperature  300.81 K)
  nose potential ES     =         0.000000
  nose kinetic   EPS    =         0.000000
  ---------------------------------------------------
  total energy   ETOTAL =      -187.257768 eV



--------------------------------------- Ionic step      999  -------------------------------------------


      MLFF:  cpu time      0.0104: real time      0.0104
     LOOP+:  cpu time      0.0105: real time      0.0105
           RANDOM_SEED =                10           384000                0
   IONSTEP:  cpu time      0.0001: real time      0.0001

  ENERGY OF THE ELECTRON-ION-THERMOSTAT SYSTEM (eV)
  ---------------------------------------------------
% ion-electron   TOTEN  =      -189.706863  see above
  kinetic energy EKIN   =         2.449856
  kin. lattice  EKIN_LAT=         0.000000  (temperature  296.14 K)
  nose potential ES     =         0.000000
  nose kinetic   EPS    =         0.000000
  ---------------------------------------------------
  total energy   ETOTAL =      -187.257007 eV



--------------------------------------- Ionic step     1000  -------------------------------------------



  ML FORCE on cell =-STRESS in cart. coord. units (eV/cell)
  Direction    XX          YY          ZZ          XY          YZ          ZX
  --------------------------------------------------------------------------------------
  Total:    -22.75870   -21.20763   -20.68763    -0.30824    -0.09304     0.14657
  in kB     -69.78960   -65.03326   -63.43867    -0.94523    -0.28532     0.44947
  external pressure =      -66.09 kB  Pullay stress =        0.00 kB

  kinetic pressure (ideal gas correction) =      5.10 kB
  total pressure  =    -60.98 kB
  Total+kin.   -64.171     -59.802     -58.975      -0.157       0.292      -0.412
  volume of cell :      522.48
      direct lattice vectors                 reciprocal lattice vectors
     8.054200000  0.000000000  0.000000000     0.124158824  0.000000000  0.000000000
     0.000000000  8.054200000  0.000000000     0.000000000  0.124158824  0.000000000
     0.000000000  0.000000000  8.054200000     0.000000000  0.000000000  0.124158824

  length of vectors
     8.054200000  8.054200000  8.054200000     0.124158824  0.124158824  0.124158824


  POSITION                                       TOTAL-FORCE (eV/Angst) (ML)
 -----------------------------------------------------------------------------------
      6.93883      6.31168      7.25375        -0.006487      0.930241     -0.137757
      6.76210      6.56214      3.18095         0.124786      0.076377     -0.515434
      7.02213      2.58642      7.07037        -0.202813     -0.201201      0.020943
      6.97515      2.54199      3.29293        -0.256162     -0.106772     -0.587229
      2.82713      6.60081      7.23521         0.113187     -0.052858     -0.669955
      2.93579      6.68398      2.98021        -0.447424     -0.161190      0.319686
      2.90542      2.50688      7.10477         0.064294      0.255409     -0.068305
      2.72204      2.54431      3.09833         0.405624      0.302722      0.031109
      2.85973      4.61196      1.01785         0.077120      0.202416      0.185526
      2.74286      4.81194      5.14804         0.492656     -0.497791     -0.105305
      2.80107      0.38172      0.93336         0.106022      0.890846      0.337191
      2.90904      0.42198      5.09436        -0.066201      0.556971     -0.037310
      6.93823      4.53796      1.24888        -0.220046     -0.032576     -0.231725
      7.02971      4.58587      5.02488        -0.465466     -0.139278      0.221487
      6.85262      0.63702      0.91965         0.255696     -0.111511      0.400544
      6.97569      0.49718      5.00880        -0.108361      0.148219      0.350146
      0.91058      2.71589      0.95883        -0.006078     -0.536744      0.309341
      0.91857      2.62364      5.15688         0.128789     -0.145604     -0.164159
      0.80632      6.76239      1.06997        -0.289289     -0.176566      0.162741
      0.71411      6.45694      4.94622         0.417517      0.653329      0.419147
      4.79346      2.69766      0.99181         0.373431     -0.314323      0.301915
      4.96561      2.32060      5.03202        -0.366366      0.844959      0.146966
      4.76168      6.64151      1.10688         0.497920     -0.219339     -0.411399
      4.95944      6.60720      5.14034        -0.238968     -0.044124      0.087905
      0.73905      4.55353      3.00393         0.493675      0.171546      0.047941
      0.81299      4.57561      7.24459         0.533117      0.173282     -0.268977
      0.72106      0.44514      3.06571         0.457086      0.536862     -0.166545
      0.88680      0.53570      6.90838        -0.087811     -0.153222      0.396970
      4.86019      4.51408      3.22023        -0.110675     -0.135016     -0.285834
      5.09332      4.50647      7.17630        -0.468621      0.232322     -0.341926
      4.89487      0.54975      2.90481        -0.075978      0.210897      0.328671
      5.05331      0.65969      7.03535        -0.297933     -0.337025      0.270875
      0.84522      4.78582      1.06563         0.012660     -0.431385      0.074110
      0.87488      4.66834      4.89401        -0.077730     -0.244611      0.334658
      0.95630      0.71489      1.11179        -0.233716     -0.233502     -0.055940
      0.92719      0.63780      4.94566        -0.151991     -0.170685      0.315128
      4.92987      4.59448      1.23432         0.049365      0.075316     -0.413403
      5.11418      4.69230      4.99404        -0.244292     -0.085481      0.419839
      4.87534      0.71674      1.04578        -0.032717     -0.359877     -0.131230
      4.84489      0.59638      5.16328         0.213547     -0.486854     -0.180794
      0.89414      2.41366      7.11805        -0.010940      0.493388     -0.150340
      0.81224      2.59425      3.06092         0.077248      0.133702      0.017700
      0.87434      6.65472      7.28172        -0.139404     -0.205782     -0.521340
      0.73304      6.68087      3.14281         0.137418     -0.267742     -0.281862
      4.98438      2.62859      7.06973         0.011121     -0.118384      0.026103
      4.78966      2.42645      3.16196         0.269096      0.371550     -0.187843
      5.00271      6.56835      7.09416        -0.180261     -0.025585      0.210274
      4.75411      6.50256      2.92760         0.372336      0.417291      0.358665
      2.86099      4.66843      7.08851        -0.014522     -0.003691      0.061345
      2.97240      4.70932      3.07036        -0.412446     -0.143085      0.019456
      2.88056      0.61763      7.17634         0.079621     -0.256315     -0.281198
      2.93379      0.77311      3.06302        -0.134951     -0.803869     -0.063895
      7.10361      4.52504      7.00510        -0.341139     -0.095899      0.098936
      6.86510      4.44489      3.12003         0.124511      0.251516     -0.034282
      6.93675      0.36078      7.18151         0.081363      0.286840     -0.407945
      6.94217      0.64726      3.11577        -0.315033     -0.277044     -0.148142
      2.60511      6.64552      0.95154         0.755602     -0.109672      0.505072
      2.85771      6.70567      5.18176        -0.020856     -0.282341     -0.174505
      3.01069      2.84895      0.87870        -0.518027     -0.450054      0.364068
      2.91528      2.66858      5.29473        -0.116869     -0.055840     -0.554026
      6.95317      6.51657      1.13390        -0.294677      0.137736      0.048235
      6.87296      6.70825      5.06012         0.119945     -0.364633      0.068392
      7.01203      2.50603      0.89106        -0.148202      0.388501      0.323152
      6.87819      2.50447      5.14482         0.257696      0.095235     -0.005632
 -----------------------------------------------------------------------------------
    total drift:                               -0.000000      0.000000      0.000000


--------------------------------------------------------------------------------------------------------



  ML FREE ENERGIE OF THE ION-ELECTRON SYSTEM (eV)
  ---------------------------------------------------
  free  energy ML TOTEN  =      -189.68983587 eV

  ML energy  without entropy=     -189.68983587  ML energy(sigma->0) =     -189.68983587

      MLFF:  cpu time      0.0109: real time      0.0109
     LOOP+:  cpu time      0.0109: real time      0.0109
           RANDOM_SEED =                10           384384                0
   IONSTEP:  cpu time      0.0020: real time      0.0020

  ENERGY OF THE ELECTRON-ION-THERMOSTAT SYSTEM (eV)
  ---------------------------------------------------
% ion-electron   TOTEN  =      -189.689836  see above
  kinetic energy EKIN   =         2.441883
  kin. lattice  EKIN_LAT=         0.000000  (temperature  295.17 K)
  nose potential ES     =         0.000000
  nose kinetic   EPS    =         0.000000
  ---------------------------------------------------
  total energy   ETOTAL =      -187.247953 eV


 mean value of Nose-termostat <S>:     1.000 mean value of <T> :   306.525
 mean temperature <T/S>/<1/S>  :   306.525

      MLFF:  cpu time      0.0033: real time      0.0033
     LOOP+:  cpu time      0.0053: real time      0.0053

 total amount of memory used by VASP MPI-rank0    30000. kBytes
=======================================================================

   base      :      30000. kBytes
 
  
  
 General timing and accounting informations for this job:
 ========================================================
  
                  Total CPU time used (sec):       11.815
                            User time (sec):       11.586
                          System time (sec):        0.229
                         Elapsed time (sec):       12.223
  
                   Maximum memory used (kb):      183920.
                   Average memory used (kb):          N/A
  
                          Minor page faults:        39181
                          Major page faults:         3081
                 Voluntary context switches:           24
