 vasp.6.5.0 dev (build Oct 02 2023 09:10:33) gamma-only                         
  
 executed on             LinuxIFC date 2023.11.09  10:05:14
 running    4 mpi-ranks, on    1 nodes
 distrk:  each k-point on    4 cores,    1 groups
 distr:  one band on NCORE=   1 cores,    4 groups


--------------------------------------------------------------------------------------------------------


 INCAR:
   KSPACING = 300
   IBRION = 0
   NSW = 1000
   POTIM = 2.0
   MDALGO = 3
   TEBEG = 300
   LANGEVIN_GAMMA = 3.0 3.0
   ISIF = 2
   RANDOM_SEED = 10 0 0
   ML_LMLFF = .TRUE.
   ML_MODE = RUN
   ML_OUTBLOCK = 1000
   ML_OUTPUT_MODE = 0

 POTCAR:    PAW_PBE Li 17Jan2003                  
 POTCAR:    PAW_PBE H 15Jun2001                   
 -----------------------------------------------------------------------------
|                                                                             |
|           W    W    AA    RRRRR   N    N  II  N    N   GGGG   !!!           |
|           W    W   A  A   R    R  NN   N  II  NN   N  G    G  !!!           |
|           W    W  A    A  R    R  N N  N  II  N N  N  G       !!!           |
|           W WW W  AAAAAA  RRRRR   N  N N  II  N  N N  G  GGG   !            |
|           WW  WW  A    A  R   R   N   NN  II  N   NN  G    G                |
|           W    W  A    A  R    R  N    N  II  N    N   GGGG   !!!           |
|                                                                             |
|     ISYM>0 for a molecular dynamics simmulation is not recommended.         |
|                                                                             |
 -----------------------------------------------------------------------------

 POTCAR:    PAW_PBE Li 17Jan2003                  
   VRHFIN =Li: s1p0                                                                                 
   LEXCH  = PE                                                                                      
   EATOM  =     5.3001 eV,    0.3895 Ry                                                             
                                                                                                    
   TITEL  = PAW_PBE Li 17Jan2003                                                                    
   LULTRA =        F    use ultrasoft PP ?                                                          
   IUNSCR =        1    unscreen: 0-lin 1-nonlin 2-no                                               
   RPACOR =    1.500    partial core radius                                                         
   POMASS =    7.010; ZVAL   =    1.000    mass and valenz                                          
   RCORE  =    2.050    outmost cutoff radius                                                       
   RWIGS  =    2.600; RWIGS  =    1.376    wigner-seitz radius (au A)                               
   ENMAX  =  140.000; ENMIN  =  100.000 eV                                                          
   ICORE  =        2    local potential                                                             
   LCOR   =        T    correct aug charges                                                         
   LPAW   =        T    paw PP                                                                      
   EAUG   =  331.638                                                                                
   DEXC   =    0.000                                                                                
   RMAX   =    2.098    core radius for proj-oper                                                   
   RAUG   =    1.300    factor for augmentation sphere                                              
   RDEP   =    2.094    radius for radial grids                                                     
   RDEPT  =    1.810    core radius for aug-charge                                                  
                                                                                                    
   Atomic configuration                                                                             
    4 entries                                                                                       
     n  l   j            E        occ.                                                              
     1  0  0.50       -51.8549   2.0000                                                             
     2  0  0.50        -2.8742   1.0000                                                             
     2  1  0.50        -1.3606   0.0000                                                             
     3  2  1.50        -1.3606   0.0000                                                             
   Description                                                                                      
     l       E           TYP  RCUT    TYP  RCUT                                                     
     0     -2.8742052     23  2.050                                                                 
     0     27.2116520     23  2.050                                                                 
     1     -1.3605826     23  2.050                                                                 
     2     -1.3605826     23  2.050                                                                 
  local pseudopotential read in
  partial core-charges read in
  partial kinetic energy density read in
  atomic valenz-charges read in
  non local Contribution for L=           0  read in
    real space projection operators read in
  non local Contribution for L=           0  read in
    real space projection operators read in
  non local Contribution for L=           1  read in
    real space projection operators read in
    PAW grid and wavefunctions read in
 
   number of l-projection  operators is LMAX  =           3
   number of lm-projection operators is LMMAX =           5
 
 POTCAR:    PAW_PBE H 15Jun2001                   
   VRHFIN =H: ultrasoft test                                                                        
   LEXCH  = PE                                                                                      
   EATOM  =    12.4884 eV,    0.9179 Ry                                                             
                                                                                                    
   TITEL  = PAW_PBE H 15Jun2001                                                                     
   LULTRA =        F    use ultrasoft PP ?                                                          
   IUNSCR =        0    unscreen: 0-lin 1-nonlin 2-no                                               
   RPACOR =    0.000    partial core radius                                                         
   POMASS =    1.000; ZVAL   =    1.000    mass and valenz                                          
   RCORE  =    1.100    outmost cutoff radius                                                       
   RWIGS  =    0.700; RWIGS  =    0.370    wigner-seitz radius (au A)                               
   ENMAX  =  250.000; ENMIN  =  200.000 eV                                                          
   RCLOC  =    0.701    cutoff for local pot                                                        
   LCOR   =        T    correct aug charges                                                         
   LPAW   =        T    paw PP                                                                      
   EAUG   =  400.000                                                                                
   RMAX   =    1.123    core radius for proj-oper                                                   
   RAUG   =    1.200    factor for augmentation sphere                                              
   RDEP   =    1.112    radius for radial grids                                                     
   RDEPT  =    0.926    core radius for aug-charge                                                  
                                                                                                    
   Atomic configuration                                                                             
    2 entries                                                                                       
     n  l   j            E        occ.                                                              
     1  0  0.50        -6.4927   1.0000                                                             
     2  1  0.50        -3.4015   0.0000                                                             
   Description                                                                                      
     l       E           TYP  RCUT    TYP  RCUT                                                     
     0     -6.4927494     23  1.100                                                                 
     0      6.8029130     23  1.100                                                                 
     1     -4.0817478     23  1.100                                                                 
  local pseudopotential read in
  atomic valenz-charges read in
  non local Contribution for L=           0  read in
    real space projection operators read in
  non local Contribution for L=           0  read in
    real space projection operators read in
  non local Contribution for L=           1  read in
    real space projection operators read in
    PAW grid and wavefunctions read in
 
   number of l-projection  operators is LMAX  =           3
   number of lm-projection operators is LMMAX =           5
 
 -----------------------------------------------------------------------------
|                                                                             |
|               ----> ADVICE to this user running VASP <----                  |
|                                                                             |
|     You have a (more or less) 'large supercell' and for larger cells it     |
|     might be more efficient to use real-space projection operators.         |
|     Therefore, try LREAL= Auto in the INCAR file.                           |
|     Mind: For very accurate calculation, you might also keep the            |
|     reciprocal projection scheme (i.e. LREAL=.FALSE.).                      |
|                                                                             |
 -----------------------------------------------------------------------------

  PAW_PBE Li 17Jan2003                  :
 energy of atom  1       EATOM=   -5.3001
 kinetic energy error for atom=   -8.1328 (will be added to EATOM!!)
  PAW_PBE H 15Jun2001                   :
 energy of atom  2       EATOM=  -12.4884
 kinetic energy error for atom= -321.8997 (will be added to EATOM!!)
 
 
 POSCAR: unknown system
  positions in direct lattice
  No initial velocities read in

  MD-specific parameters
                MDALGO =   3
        LANGEVIN_GAMMA =     3.000    3.000
                 CNEXP =     9.000   14.000
 exchange-correlation table for PE
   RHO(1)=    0.500       N(1)  =     2000
   RHO(2)=  100.500       N(2)  =     4000
 


--------------------------------------------------------------------------------------------------------


 ion  position               nearest neighbor table
   1  0.792  0.736  0.733-  47 1.86  53 1.87  61 1.96  26 2.69  14 2.70  30 2.73  19 2.76  15 2.77
                            32 2.81  13 2.82  20 2.84  16 2.86  23 2.89  24 2.91  28 3.25
   2  0.799  0.755  0.240-  62 1.75  48 1.91  44 2.05  14 2.60  20 2.62  24 2.64  25 2.78  29 2.80
                            19 2.83  16 2.85  31 2.90  23 2.92  15 2.99  27 3.04  13 3.10
   3  0.783  0.245  0.709-  55 1.86  64 1.90  45 1.98  41 2.07  53 2.08  18 2.62  16 2.63  21 2.75
                            32 2.76  22 2.78  15 2.84  13 2.85  28 2.86  17 2.90  30 2.90  14 2.99
   4  0.807  0.245  0.235-  56 1.81  64 1.97  42 1.99  54 1.99  63 2.04  18 2.57  27 2.73  13 2.85
                            25 2.85  31 2.88  22 2.88  16 2.90  17 2.92  29 2.96  14 2.97  15 3.01
   5  0.313  0.768  0.740-  58 1.82  51 1.84  57 1.90  47 2.04   9 2.61  11 2.63  32 2.65  23 2.71
                            30 2.76  26 2.88  28 2.92  12 2.92  10 2.94  19 2.97  24 2.99  20 3.16
   6  0.324  0.755  0.217-  50 1.90  48 1.95  57 2.02  23 2.53  31 2.67   9 2.70  29 2.70  24 2.70
                            10 2.75  12 2.80  11 2.98  27 3.01  25 3.02  19 3.06  20 3.15
   7  0.273  0.237  0.715-  41 1.95  59 1.95  51 1.97  60 2.08  28 2.36  11 2.65  17 2.73  12 2.80
                            18 2.83  22 2.91  26 2.93  21 3.00  32 3.01  10 3.07  30 3.07   9 3.17
   8  0.290  0.249  0.209-  52 1.91  42 1.92  60 2.00  59 2.03  46 2.04  27 2.57  11 2.79  31 2.82
                            17 2.84  12 2.85  22 2.88  25 2.91  21 2.92  29 3.00  10 3.05   9 3.06
   9  0.270  0.540  0.966-  57 1.73  49 1.93  37 1.96  33 2.06   5 2.61  26 2.66  19 2.69   6 2.70
                            23 2.71  25 2.74  17 2.87  30 2.89   8 3.06  29 3.12   7 3.17  21 3.19
  10  0.315  0.524  0.468-  50 1.87  38 2.00  24 2.65  29 2.72   6 2.75  22 2.79  30 2.79  26 2.93
                             5 2.94  20 2.95  25 3.00   8 3.05   7 3.07  18 3.27
  11  0.285  0.013  0.954-  51 1.67  52 1.82  59 1.90  39 1.90  35 2.00  57 2.08   5 2.63   7 2.65
                            28 2.70   8 2.79  27 2.80  19 2.81  17 2.85  32 2.91  21 2.95  31 2.97
  12  0.306  0.001  0.462-  40 1.84  58 1.85  60 1.97  31 2.73  28 2.74  27 2.75  22 2.77   7 2.80
                             6 2.80   8 2.85  32 2.86  24 2.87   5 2.92  20 3.02  18 3.11
  13  0.820  0.480  0.971-  33 1.60  63 1.87  53 2.06  17 2.47  25 2.67  21 2.77  26 2.78   1 2.82
                             4 2.85   3 2.85  19 2.92  30 2.98  29 3.00  23 3.08   2 3.10
  14  0.806  0.529  0.469-  62 1.77  34 1.85  54 1.97  38 1.97  53 2.03  20 2.52   2 2.60  24 2.67
                             1 2.70  25 2.78  18 2.79  29 2.81  26 2.82   4 2.97   3 2.99  30 3.01
  15  0.781  0.996  0.957-  61 1.96  55 1.98  63 2.06  35 2.06  32 2.67  19 2.70   1 2.77  21 2.83
                             3 2.84  23 2.84  31 2.85   2 2.99   4 3.01  17 3.03  28 3.09  27 3.13
  16  0.775  0.998  0.495-  55 1.76  40 1.97  36 2.02  62 2.05  32 2.52   3 2.63  24 2.70  18 2.80
                             2 2.85  20 2.85  22 2.85   1 2.86  28 2.88   4 2.90  31 2.92  27 3.20
  17  0.041  0.268  0.959-  41 1.71  59 1.94  33 1.98  63 2.00  35 2.04  13 2.47   7 2.73  28 2.84
                            26 2.84   8 2.84  25 2.84  11 2.85   9 2.87   3 2.90  27 2.90   4 2.92
  18  0.013  0.252  0.478-  36 1.95  64 2.03   4 2.57  28 2.57   3 2.62  14 2.79  27 2.79  16 2.80
                             7 2.83  26 2.95  25 2.97  12 3.11   8 3.11  10 3.27
  19  0.031  0.774  0.976-  61 1.81  57 1.95  35 1.95  44 1.97   9 2.69  15 2.70   1 2.76  11 2.81
                             2 2.83  27 2.84  25 2.88  26 2.88  13 2.92   5 2.97  28 3.04   6 3.06
  20  0.027  0.751  0.471-  43 1.91  62 1.95  34 1.96  44 2.04  36 2.09  14 2.52   2 2.62  26 2.70
                            25 2.82   1 2.84  16 2.85  28 2.93  10 2.95  27 2.99  12 3.02   6 3.15
  21  0.553  0.263  0.959-  63 1.96  37 2.01  45 2.02  30 2.71   3 2.75  13 2.77  15 2.83   8 2.92
                            31 2.94  32 2.95  29 2.95  11 2.95   7 3.00   4 3.02   9 3.19
  22  0.535  0.257  0.468-  46 1.80  64 1.82  45 1.96  40 2.02  12 2.77   3 2.78  10 2.79  29 2.81
                            16 2.85  31 2.86   8 2.88   4 2.88   7 2.91  32 2.94  30 2.94  14 3.09
  23  0.539  0.740  0.988-  48 1.75  37 1.90  47 1.98   6 2.53  29 2.69   9 2.71   5 2.71  30 2.77
                            31 2.83  15 2.84   1 2.89   2 2.92  32 2.98  11 3.01  13 3.08
  24  0.556  0.747  0.459-  38 1.59  62 1.85  48 2.06   2 2.64  10 2.65  29 2.66  14 2.67  16 2.70
                             6 2.70  32 2.84  31 2.85  12 2.87   1 2.91  30 2.91   5 2.99
  25  0.041  0.510  0.217-  34 1.82  42 1.97  44 2.01  50 2.03  13 2.67   9 2.74   2 2.78  14 2.78
                            20 2.82  17 2.84   4 2.85  19 2.88   8 2.91  18 2.97  10 3.00   6 3.02
  26  0.051  0.526  0.719-  33 1.94  43 1.99  49 2.03  41 2.05   9 2.66   1 2.69  20 2.70  13 2.78
                            14 2.82  17 2.84   5 2.88  19 2.88   7 2.93  10 2.93  18 2.95   3 3.12
  27  0.064  0.024  0.223-  42 1.95  52 2.00  36 2.04   8 2.57   4 2.73  12 2.75  18 2.79  11 2.80
                            19 2.84  17 2.90  20 2.99   6 3.01   2 3.04  15 3.13  16 3.20
  28  0.066  0.030  0.701-  51 1.83  36 1.87  41 2.01  43 2.08  35 2.09   7 2.36  18 2.57  11 2.70
                            12 2.74  17 2.84   3 2.86  16 2.88   5 2.92  20 2.93  19 3.04  15 3.09
  29  0.553  0.511  0.229-  48 1.80  54 1.81  37 1.94  38 1.96  46 2.03  24 2.66  23 2.69   6 2.70
                            10 2.72   2 2.80  22 2.81  14 2.81  21 2.95   4 2.96   8 3.00  13 3.00
  30  0.539  0.510  0.732-  45 1.86  49 1.92  53 1.96  21 2.71   1 2.73   5 2.76  23 2.77  10 2.79
                             9 2.89   3 2.90  24 2.91  22 2.94  13 2.98  14 3.01   7 3.07
  31  0.541  0.006  0.218-  52 1.91  40 1.91  39 1.94  56 1.98  46 2.05   6 2.67  12 2.73   8 2.82
                            23 2.83  24 2.85  15 2.85  22 2.86   4 2.88   2 2.90  16 2.92  21 2.94
  32  0.554  0.990  0.715-  47 1.70  55 1.80  16 2.52   5 2.65  15 2.67   3 2.76   1 2.81  24 2.84
                            12 2.86  11 2.91  22 2.94  21 2.95  23 2.98   7 3.01
  33  0.015  0.512  0.957-  13 1.60  26 1.94  17 1.98   9 2.06
  34  0.033  0.509  0.442-  25 1.82  14 1.85  20 1.96
  35  0.037  0.015  0.959-  19 1.95  11 2.00  17 2.04  15 2.06  28 2.09
  36  0.024  0.010  0.473-  28 1.87  18 1.95  16 2.02  27 2.04  20 2.09
  37  0.510  0.507  0.993-  23 1.90  29 1.94   9 1.96  21 2.01
  38  0.562  0.550  0.469-  24 1.59  29 1.96  14 1.97  10 2.00
  39  0.519  0.003  0.979-  11 1.90  31 1.94
  40  0.535  0.007  0.455-  12 1.84  31 1.91  16 1.97  22 2.02
  41  0.036  0.273  0.747-  17 1.71   7 1.95  28 2.01  26 2.05   3 2.07
  42  0.053  0.266  0.221-   8 1.92  27 1.95  25 1.97   4 1.99
  43  0.054  0.772  0.706-  20 1.91  26 1.99  28 2.08
  44  0.052  0.760  0.220-  19 1.97  25 2.01  20 2.04   2 2.05
  45  0.540  0.280  0.710-  30 1.86  22 1.96   3 1.98  21 2.02
  46  0.540  0.259  0.245-  22 1.80  29 2.03   8 2.04  31 2.05
  47  0.566  0.783  0.747-  32 1.70   1 1.86  23 1.98   5 2.04
  48  0.565  0.733  0.204-  23 1.75  29 1.80   2 1.91   6 1.95  24 2.06
  49  0.301  0.502  0.731-  30 1.92   9 1.93  26 2.03
  50  0.291  0.522  0.237-  10 1.87   6 1.90  25 2.03
  51  0.286  0.995  0.747-  11 1.67  28 1.83   5 1.84   7 1.97
  52  0.308  0.013  0.179-  11 1.82  31 1.91   8 1.91  27 2.00
  53  0.782  0.504  0.719-   1 1.87  30 1.96  14 2.03  13 2.06   3 2.08
  54  0.777  0.491  0.230-  29 1.81  14 1.97   4 1.99
  55  0.776  0.015  0.712-  16 1.76  32 1.80   3 1.86  15 1.98
  56  0.786  0.021  0.229-   4 1.81  31 1.98
  57  0.272  0.755  0.972-   9 1.73   5 1.90  19 1.95   6 2.02  11 2.08
  58  0.291  0.779  0.516-   5 1.82  12 1.85
  59  0.280  0.248  0.957-  11 1.90  17 1.94   7 1.95   8 2.03
  60  0.276  0.244  0.456-  12 1.97   8 2.00   7 2.08
  61  0.807  0.755  0.975-  19 1.81  15 1.96   1 1.96
  62  0.786  0.747  0.456-   2 1.75  14 1.77  24 1.85  20 1.95  16 2.05
  63  0.795  0.250  0.983-  13 1.87  21 1.96  17 2.00   4 2.04  15 2.06
  64  0.761  0.267  0.475-  22 1.82   3 1.90   4 1.97  18 2.03
 
  LATTYP: Found a simple cubic cell.
 ALAT       =     8.0542000000
  
  Lattice vectors:
  
 A1 = (   8.0542000000,   0.0000000000,   0.0000000000)
 A2 = (   0.0000000000,   8.0542000000,   0.0000000000)
 A3 = (   0.0000000000,   0.0000000000,   8.0542000000)


Analysis of symmetry for initial positions (statically):
=====================================================================
 Subroutine PRICEL returns:
 Original cell was already a primitive cell.
 

 Routine SETGRP: Setting up the symmetry group for a 
 simple cubic supercell.


 Subroutine GETGRP returns: Found  1 space group operations
 (whereof  1 operations were pure point group operations)
 out of a pool of 48 trial point group operations.


The static configuration has the point symmetry C_1 .


Analysis of symmetry for dynamics (positions and initial velocities):
=====================================================================
 Subroutine PRICEL returns:
 Original cell was already a primitive cell.
 

 Routine SETGRP: Setting up the symmetry group for a 
 simple cubic supercell.


 Subroutine GETGRP returns: Found  1 space group operations
 (whereof  1 operations were pure point group operations)
 out of a pool of 48 trial point group operations.


The dynamic configuration has the point symmetry C_1 .


 Subroutine INISYM returns: Found  1 space group operations
 (whereof  1 operations are pure point group operations),
 and found     1 'primitive' translations


----------------------------------------------------------------------------------------

                                     Primitive cell                                     

  volume of cell :     522.4771

  direct lattice vectors                    reciprocal lattice vectors
     8.054200000  0.000000000  0.000000000     0.124158824  0.000000000  0.000000000
     0.000000000  8.054200000  0.000000000     0.000000000  0.124158824  0.000000000
     0.000000000  0.000000000  8.054200000     0.000000000  0.000000000  0.124158824

  length of vectors
     8.054200000  8.054200000  8.054200000     0.124158824  0.124158824  0.124158824

  position of ions in fractional coordinates (direct lattice)
     0.791918550  0.735654400  0.733236350
     0.798987710  0.755247360  0.239676880
     0.783209530  0.245364450  0.708525450
     0.806953030  0.245004200  0.235075560
     0.313247040  0.767978880  0.739899270
     0.324427760  0.755378810  0.216823240
     0.272913530  0.237149560  0.714938030
     0.289906410  0.248555860  0.208754210
     0.269753230  0.540333600  0.966200760
     0.314733210  0.524050870  0.467817590
     0.284773320  0.012675600  0.954441080
     0.305805640  0.001187250  0.462085150
     0.819724370  0.479940040  0.971291950
     0.805566670  0.529146510  0.469402910
     0.781007310  0.996217000  0.957448150
     0.775411030  0.998482770  0.495032590
     0.040746940  0.268181060  0.959436240
     0.012937130  0.252048170  0.478332780
     0.030843160  0.773970390  0.976131790
     0.026995470  0.750802430  0.471394050
     0.552627280  0.262961190  0.959395290
     0.535449240  0.257467390  0.467918960
     0.539410570  0.740372870  0.987567730
     0.556260850  0.747126900  0.459481280
     0.040543730  0.510290180  0.216618040
     0.050991810  0.525781370  0.719053460
     0.063592270  0.023591980  0.222995010
     0.065516450  0.029784380  0.701432510
     0.552962490  0.510707760  0.229122470
     0.539298160  0.509774260  0.731613830
     0.541482450  0.005607920  0.218483840
     0.554087960  0.990359620  0.715358890
     0.015329680  0.512482190  0.956692760
     0.033258950  0.509022500  0.442332870
     0.036540020  0.015401510  0.959060510
     0.024478320  0.010209390  0.473193530
     0.509549650  0.506547390  0.992710310
     0.561925990  0.550373270  0.469460350
     0.519048980  0.002776620  0.978790200
     0.534665550  0.006818040  0.455405980
     0.036166310  0.272839740  0.747442330
     0.052582480  0.265979060  0.221028710
     0.054460360  0.772025610  0.706298170
     0.052228030  0.759979250  0.219567230
     0.539673110  0.280029970  0.709663340
     0.540343590  0.259020030  0.244811440
     0.566307170  0.782515780  0.747495120
     0.565169030  0.732883690  0.203665940
     0.301311280  0.501501770  0.731473350
     0.291112420  0.522122990  0.236583120
     0.285837060  0.994714420  0.747482670
     0.307907730  0.013376430  0.179291290
     0.782480000  0.503946260  0.719095020
     0.777080240  0.490677620  0.229906570
     0.775739600  0.014624360  0.712398920
     0.786017190  0.020711340  0.229431820
     0.271593250  0.755378740  0.971542640
     0.290535030  0.778671430  0.515572790
     0.280198530  0.248188820  0.956665530
     0.275704910  0.243639740  0.456422250
     0.807165610  0.755017080  0.975469170
     0.785603670  0.747007060  0.456155000
     0.794601560  0.249879390  0.982522600
     0.761178960  0.267200310  0.474621520

  ion indices of the primitive-cell ions
   primitive index   ion index
                 1           1
                 2           2
                 3           3
                 4           4
                 5           5
                 6           6
                 7           7
                 8           8
                 9           9
                10          10
                11          11
                12          12
                13          13
                14          14
                15          15
                16          16
                17          17
                18          18
                19          19
                20          20
                21          21
                22          22
                23          23
                24          24
                25          25
                26          26
                27          27
                28          28
                29          29
                30          30
                31          31
                32          32
                33          33
                34          34
                35          35
                36          36
                37          37
                38          38
                39          39
                40          40
                41          41
                42          42
                43          43
                44          44
                45          45
                46          46
                47          47
                48          48
                49          49
                50          50
                51          51
                52          52
                53          53
                54          54
                55          55
                56          56
                57          57
                58          58
                59          59
                60          60
                61          61
                62          62
                63          63
                64          64

----------------------------------------------------------------------------------------

 
 -----------------------------------------------------------------------------
|                                                                             |
|           W    W    AA    RRRRR   N    N  II  N    N   GGGG   !!!           |
|           W    W   A  A   R    R  NN   N  II  NN   N  G    G  !!!           |
|           W    W  A    A  R    R  N N  N  II  N N  N  G       !!!           |
|           W WW W  AAAAAA  RRRRR   N  N N  II  N  N N  G  GGG   !            |
|           WW  WW  A    A  R   R   N   NN  II  N   NN  G    G                |
|           W    W  A    A  R    R  N    N  II  N    N   GGGG   !!!           |
|                                                                             |
|     The requested file  could not be found or opened for reading            |
|     k-point information. Automatic k-point generation is used as a          |
|     fallback, which may lead to unwanted results.                           |
|                                                                             |
 -----------------------------------------------------------------------------

 

Automatic generation of k-mesh.
 Grid dimensions derived from KSPACING:
 generate k-points for:    1    1    1

 Generating k-lattice:

  Cartesian coordinates                     Fractional coordinates (reciprocal lattice)
     0.124158824  0.000000000  0.000000000     1.000000000  0.000000000  0.000000000
     0.000000000  0.124158824  0.000000000     0.000000000  1.000000000  0.000000000
     0.000000000  0.000000000  0.124158824     0.000000000  0.000000000  1.000000000

  Length of vectors
     0.124158824  0.124158824  0.124158824

  Shift w.r.t. Gamma in fractional coordinates (k-lattice)
     0.000000000  0.000000000  0.000000000

 
 Subroutine IBZKPT returns following result:
 ===========================================
 
 Found      1 irreducible k-points:
 
 Following reciprocal coordinates:
            Coordinates               Weight
  0.000000  0.000000  0.000000      1.000000
 
 Following cartesian coordinates:
            Coordinates               Weight
  0.000000  0.000000  0.000000      1.000000
 


--------------------------------------------------------------------------------------------------------




 Dimension of arrays:
   k-points           NKPTS =      1   k-points in BZ     NKDIM =      1   number of bands    NBANDS=     68
   number of dos      NEDOS =    301   number of ions     NIONS =     64
   non local maximal  LDIM  =      3   non local SUM 2l+1 LMDIM =      5
   total plane-waves  NPLWV =      8
   max r-space proj   IRMAX =      1   max aug-charges    IRDMAX=    200
   dimension x,y,z NGX =     2 NGY =    2 NGZ =    2
   dimension x,y,z NGXF=     2 NGYF=    2 NGZF=    2
   support grid    NGXF=     2 NGYF=    2 NGZF=    2
   ions per type =              32  32
   NGX,Y,Z   is equivalent  to a cutoff of   0.41,  0.41,  0.41 a.u.
   NGXF,Y,Z  is equivalent  to a cutoff of   0.41,  0.41,  0.41 a.u.

 SYSTEM =  unknown system                          
 POSCAR =  unknown system                          

 Startparameter for this run:
   NWRITE =      2    write-flag & timer
   PREC   = normal    normal or accurate (medium, high low for compatibility)
   ISTART =      0    job   : 0-new  1-cont  2-samecut
   ICHARG =      2    charge: 1-file 2-atom 10-const
   ISPIN  =      1    spin polarized calculation?
   LNONCOLLINEAR =      F non collinear calculations
   LSORBIT =      F    spin-orbit coupling
   INIWAV =      1    electr: 0-lowe 1-rand  2-diag
   LASPH  =      F    aspherical Exc in radial PAW
 Electronic Relaxation 1
   ENCUT  =    1.0 eV   0.07 Ry    0.27 a.u.   0.66  0.66  0.66*2*pi/ulx,y,z
   ENINI  =    1.0     initial cutoff
   ENAUG  =  400.0 eV  augmentation charge cutoff
   NELM   =     60;   NELMIN=  2; NELMDL=  0     # of ELM steps 
   EDIFF  = 0.1E-03   stopping-criterion for ELM
   LREAL  =      F    real-space projection
   NLSPLINE    = F    spline interpolate recip. space projectors
   LCOMPAT=      F    compatible to vasp.4.4
   GGA_COMPAT  = T    GGA compatible to vasp.4.4-vasp.4.6
   LMAXPAW     = -100 max onsite density
   LMAXMIX     =    2 max onsite mixed and CHGCAR
   VOSKOWN=      0    Vosko Wilk Nusair interpolation
   ROPT   =    0.00000   0.00000
 Ionic relaxation
   EDIFFG = 0.1E-02   stopping-criterion for IOM
   NSW    =   1000    number of steps for IOM
   NBLOCK =   1000;   KBLOCK =      1    inner block; outer block 
   IBRION =      0    ionic relax: 0-MD 1-quasi-New 2-CG
   NFREE  =      0    steps in history (QN), initial steepest desc. (CG)
   ISIF   =      2    stress and relaxation
   IWAVPR =     11    prediction:  0-non 1-charg 2-wave 3-comb
   ISYM   =      2    0-nonsym 1-usesym 2-fastsym
   LCORR  =      T    Harris-Foulkes like correction to forces

   POTIM  = 2.0000    time-step for ionic-motion
   TEIN   =  300.0    initial temperature
   TEBEG  =  300.0;   TEEND  = 300.0 temperature during run
   SMASS  =  -3.00    Nose mass-parameter (am)
   estimated Nose-frequenzy (Omega)   =  0.10E-29 period in steps = 0.31E+46 mass=  -0.148E-26a.u.
   SCALEE = 1.0000    scale energy and forces
   NPACO  =    256;   APACO  = 10.0  distance and # of slots for P.C.
   PSTRESS=    0.0 pullay stress

  Mass of Ions in am
   POMASS =   7.01  1.00
  Ionic Valenz
   ZVAL   =   1.00  1.00
  Atomic Wigner-Seitz radii
   RWIGS  =  -1.00 -1.00
  virtual crystal weights 
   VCA    =   1.00  1.00
   NELECT =      64.0000    total number of electrons
   NUPDOWN=      -1.0000    fix difference up-down

 DOS related values:
   EMIN   =  10.00;   EMAX   =-10.00  energy-range for DOS
   EFERMI =   0.00;   METHOD = LEGACY      
   ISMEAR =     1;   SIGMA  =   0.20  broadening in eV -4-tet -1-fermi 0-gaus

 Electronic relaxation 2 (details)
   IALGO  =     38    algorithm
   LDIAG  =      T    sub-space diagonalisation (order eigenvalues)
   LSUBROT=      F    optimize rotation matrix (better conditioning)
   TURBO    =      0    0=normal 1=particle mesh
   IRESTART =      0    0=no restart 2=restart with 2 vectors
   NREBOOT  =      0    no. of reboots
   NMIN     =      0    reboot dimension
   EREF     =   0.00    reference energy to select bands
   IMIX   =      4    mixing-type and parameters
     AMIX     =   0.40;   BMIX     =  1.00
     AMIX_MAG =   1.60;   BMIX_MAG =  1.00
     AMIN     =   0.10
     WC   =   100.;   INIMIX=   1;  MIXPRE=   1;  MAXMIX= -45

 Intra band minimization:
   WEIMIN = 0.0010     energy-eigenvalue tresh-hold
   EBREAK =  0.37E-06  absolut break condition
   DEPER  =   0.30     relativ break condition  

   TIME   =   0.40     timestep for ELM

  volume/ion in A,a.u.               =       8.16        55.09
  Fermi-wavevector in a.u.,A,eV,Ry     =   0.813041  1.536425  8.993935  0.661036
  Thomas-Fermi vector in A             =   1.922694
 
 Write flags
   LWAVE        =      T    write WAVECAR
   LDOWNSAMPLE  =      F    k-point downsampling of WAVECAR
   LCHARG       =      T    write CHGCAR
   LVTOT        =      F    write LOCPOT, total local potential
   LVHAR        =      F    write LOCPOT, Hartree potential only
   LELF         =      F    write electronic localiz. function (ELF)
   LORBIT       =      0    0 simple, 1 ext, 2 COOP (PROOUT), +10 PAW based schemes


 Dipole corrections
   LMONO  =      F    monopole corrections only (constant potential shift)
   LDIPOL =      F    correct potential (dipole corrections)
   IDIPOL =      0    1-x, 2-y, 3-z, 4-all directions 
   EPSILON=  1.0000000 bulk dielectric constant

 Exchange correlation treatment:
   GGA     = PE    functional components
   XC_C    = 1    coefficients multiplying the functional components
   LIBXC   =     F    Libxc                    
   VOSKOWN =     0    Vosko Wilk Nusair interpolation
   LHFCALC =     F    Hartree Fock is set to
   LHFONE  =     F    Hartree Fock one center treatment
   AEXX    =    0.0000 exact exchange contribution

 Parameters of functionals:
   PE:
     No parameter
 
 Linear response parameters
   LEPSILON=     F    determine dielectric tensor
   LRPA    =     F    only Hartree local field effects (RPA)
   LNABLA  =     F    use nabla operator in PAW spheres
   LVEL    =     F    velocity operator in full k-point grid
   CSHIFT  =0.1000    complex shift for real part using Kramers Kronig
   OMEGAMAX=  -1.0    maximum frequency
   DEG_THRESHOLD= 0.2000000E-02 threshold for treating states as degnerate
   RTIME   =   -0.100 relaxation time in fs
  (WPLASMAI=    0.000 imaginary part of plasma frequency in eV, 0.658/RTIME)
   DFIELD  = 0.0000000 0.0000000 0.0000000 field for delta impulse in time
 
  Optional k-point grid parameters
   LKPOINTS_OPT  =     F    use optional k-point grid
   KPOINTS_OPT_MODE=     1    mode for optional k-point grid
 
 Orbital magnetization related:
   ORBITALMAG=     F  switch on orbital magnetization
   LCHIMAG   =     F  perturbation theory with respect to B field
   DQ        =  0.001000  dq finite difference perturbation B field
   LLRAUG    =     F  two centre corrections for induced B field
   LBONE     =     F  B-component reconstruction in AE one-centre
   LVGVCALC  =     T  calculate vGv susceptibility
   LVGVAPPL  =     F  apply vGv susceptibility instead of pGv for G=0

 Random number generation:
   RANDOM_GENERATOR = DEFAULT
   PCG_SEED         = not used


--------------------------------------------------------------------------------------------------------


 molecular dynamics for ions
   using a microcanonical ensemble
 charge density and potential will be updated during run
 non-spin polarized calculation
 Variant of blocked Davidson
 Davidson routine will perform the subspace rotation
 perform sub-space diagonalisation
    after iterative eigenvector-optimisation
 modified Broyden-mixing scheme, WC =      100.0
 initial mixing is a Kerker type mixing with AMIX =  0.4000 and BMIX =      1.0000
 Hartree-type preconditioning will be used
 using additional bands           36
 reciprocal scheme for non local part
 use partial core corrections
 calculate Harris-corrections to forces 
   (improved forces if not selfconsistent)
 use gradient corrections 
 use of overlap-Matrix (Vanderbilt PP)
 Methfessel and Paxton  Order N= 1 SIGMA  =   0.20


--------------------------------------------------------------------------------------------------------


  energy-cutoff  :        1.00
  volume of cell :      522.48
      direct lattice vectors                 reciprocal lattice vectors
     8.054200000  0.000000000  0.000000000     0.124158824  0.000000000  0.000000000
     0.000000000  8.054200000  0.000000000     0.000000000  0.124158824  0.000000000
     0.000000000  0.000000000  8.054200000     0.000000000  0.000000000  0.124158824

  length of vectors
     8.054200000  8.054200000  8.054200000     0.124158824  0.124158824  0.124158824


 
 k-points in units of 2pi/SCALE and weight: read from INCAR                         
   0.00000000  0.00000000  0.00000000       1.000
 
 k-points in reciprocal lattice and weights: read from INCAR                         
   0.00000000  0.00000000  0.00000000       1.000
 
 position of ions in fractional coordinates (direct lattice) 
   0.79191855  0.73565440  0.73323635
   0.79898771  0.75524736  0.23967688
   0.78320953  0.24536445  0.70852545
   0.80695303  0.24500420  0.23507556
   0.31324704  0.76797888  0.73989927
   0.32442776  0.75537881  0.21682324
   0.27291353  0.23714956  0.71493803
   0.28990641  0.24855586  0.20875421
   0.26975323  0.54033360  0.96620076
   0.31473321  0.52405087  0.46781759
   0.28477332  0.01267560  0.95444108
   0.30580564  0.00118725  0.46208515
   0.81972437  0.47994004  0.97129195
   0.80556667  0.52914651  0.46940291
   0.78100731  0.99621700  0.95744815
   0.77541103  0.99848277  0.49503259
   0.04074694  0.26818106  0.95943624
   0.01293713  0.25204817  0.47833278
   0.03084316  0.77397039  0.97613179
   0.02699547  0.75080243  0.47139405
   0.55262728  0.26296119  0.95939529
   0.53544924  0.25746739  0.46791896
   0.53941057  0.74037287  0.98756773
   0.55626085  0.74712690  0.45948128
   0.04054373  0.51029018  0.21661804
   0.05099181  0.52578137  0.71905346
   0.06359227  0.02359198  0.22299501
   0.06551645  0.02978438  0.70143251
   0.55296249  0.51070776  0.22912247
   0.53929816  0.50977426  0.73161383
   0.54148245  0.00560792  0.21848384
   0.55408796  0.99035962  0.71535889
   0.01532968  0.51248219  0.95669276
   0.03325895  0.50902250  0.44233287
   0.03654002  0.01540151  0.95906051
   0.02447832  0.01020939  0.47319353
   0.50954965  0.50654739  0.99271031
   0.56192599  0.55037327  0.46946035
   0.51904898  0.00277662  0.97879020
   0.53466555  0.00681804  0.45540598
   0.03616631  0.27283974  0.74744233
   0.05258248  0.26597906  0.22102871
   0.05446036  0.77202561  0.70629817
   0.05222803  0.75997925  0.21956723
   0.53967311  0.28002997  0.70966334
   0.54034359  0.25902003  0.24481144
   0.56630717  0.78251578  0.74749512
   0.56516903  0.73288369  0.20366594
   0.30131128  0.50150177  0.73147335
   0.29111242  0.52212299  0.23658312
   0.28583706  0.99471442  0.74748267
   0.30790773  0.01337643  0.17929129
   0.78248000  0.50394626  0.71909502
   0.77708024  0.49067762  0.22990657
   0.77573960  0.01462436  0.71239892
   0.78601719  0.02071134  0.22943182
   0.27159325  0.75537874  0.97154264
   0.29053503  0.77867143  0.51557279
   0.28019853  0.24818882  0.95666553
   0.27570491  0.24363974  0.45642225
   0.80716561  0.75501708  0.97546917
   0.78560367  0.74700706  0.45615500
   0.79460156  0.24987939  0.98252260
   0.76117896  0.26720031  0.47462152
 
 position of ions in cartesian coordinates  (Angst):
   6.37827039  5.92510767  5.90563221
   6.43520681  6.08291329  1.93040553
   6.30812620  1.97621435  5.70660568
   6.49936109  1.97331283  1.89334558
   2.52295431  6.18545550  5.95929670
   2.61300606  6.08397201  1.74633774
   2.19810015  1.91004999  5.75825388
   2.33496421  2.00191861  1.68134816
   2.17264647  4.35195488  7.78197416
   2.53492422  4.22081052  3.76789643
   2.29362127  0.10209182  7.68725935
   2.46301979  0.00956235  3.72172622
   6.60222402  3.86553307  7.82297962
   6.48819507  4.26185182  3.78066492
   6.29038908  8.02373096  7.71147889
   6.24531552  8.04197993  3.98709149
   0.32818400  2.15998389  7.72749136
   0.10419823  2.03004637  3.85258788
   0.24841698  6.23371232  7.86196066
   0.21742691  6.04711293  3.79670196
   4.45097064  2.11794202  7.72716154
   4.31261527  2.07369385  3.76871289
   4.34452061  5.96311117  7.95406801
   4.48023614  6.01750948  3.70075413
   0.32654731  4.10997917  1.74468502
   0.41069824  4.23474831  5.79140038
   0.51218486  0.19001453  1.79604641
   0.52768259  0.23988935  5.64947772
   4.45367049  4.11334244  1.84539820
   4.34361524  4.10582384  5.89256411
   4.36120795  0.04516731  1.75971254
   4.46273525  7.97655445  5.76164357
   0.12346831  4.12763405  7.70539483
   0.26787424  4.09976902  3.56263740
   0.29430063  0.12404684  7.72446516
   0.19715328  0.08222847  3.81119533
   4.10401479  4.07983399  7.99548738
   4.52586431  4.43281639  3.78112755
   4.18052429  0.02236345  7.88337203
   4.30630327  0.05491386  3.66793084
   0.29129069  2.19750583  6.02005001
   0.42350981  2.14224855  1.78020944
   0.43863463  6.21804867  5.68866672
   0.42065500  6.12102488  1.76843838
   4.34663516  2.25541738  5.71577047
   4.35203534  2.08619913  1.97176030
   4.56115121  6.30253860  6.02047520
   4.55198440  5.90279182  1.64036621
   2.42682131  4.03919556  5.89143266
   2.34467765  4.20528299  1.90548777
   2.30218885  8.01162888  6.02037492
   2.47995044  0.10773644  1.44404791
   6.30225042  4.05888397  5.79173511
   6.25875967  3.95201569  1.85171350
   6.24796189  0.11778752  5.73780338
   6.33073965  0.16681327  1.84788976
   2.18746635  6.08397145  7.82499873
   2.34002724  6.27157543  4.15252637
   2.25677500  1.99896239  7.70517551
   2.22058249  1.96232319  3.67611609
   6.50107326  6.08105857  7.85662379
   6.32740908  6.01654426  3.67396360
   6.39987988  2.01257858  7.91343352
   6.13068758  2.15208474  3.82269665
 


--------------------------------------------------------------------------------------------------------


 use serial FFT for orbitals x direction half grid
 k-point   1 :   0.0000 0.0000 0.0000  plane waves:       1

 maximum and minimum number of plane-waves per node :         1        1

 maximum number of plane-waves:         1
 maximum index in each direction: 
   IXMAX=    0   IYMAX=    0   IZMAX=    0
   IXMIN=    0   IYMIN=    0   IZMIN=    0



--------------------------------------- Ionic step        1  -------------------------------------------


      MLFF:  cpu time      0.0175: real time      0.0175
           RANDOM_SEED =                10                0                0
           RANDOM_SEED =                10              768                0
   IONSTEP:  cpu time      0.0002: real time      0.0002

  ENERGY OF THE ELECTRON-ION-THERMOSTAT SYSTEM (eV)
  ---------------------------------------------------
% ion-electron   TOTEN  =      -188.573986  see above
  kinetic energy EKIN   =         2.600113
  kin. lattice  EKIN_LAT=         0.000000  (temperature  314.30 K)
  nose potential ES     =         0.000000
  nose kinetic   EPS    =         0.000000
  ---------------------------------------------------
  total energy   ETOTAL =      -185.973874 eV



--------------------------------------- Ionic step        2  -------------------------------------------


      MLFF:  cpu time      0.0128: real time      0.0128
     LOOP+:  cpu time      0.0306: real time      0.0306
           RANDOM_SEED =                10             1152                0
   IONSTEP:  cpu time      0.0001: real time      0.0001

  ENERGY OF THE ELECTRON-ION-THERMOSTAT SYSTEM (eV)
  ---------------------------------------------------
% ion-electron   TOTEN  =      -189.016269  see above
  kinetic energy EKIN   =         3.025618
  kin. lattice  EKIN_LAT=         0.000000  (temperature  365.74 K)
  nose potential ES     =         0.000000
  nose kinetic   EPS    =         0.000000
  ---------------------------------------------------
  total energy   ETOTAL =      -185.990651 eV



--------------------------------------- Ionic step        3  -------------------------------------------


      MLFF:  cpu time      0.0160: real time      0.0161
     LOOP+:  cpu time      0.0161: real time      0.0161
           RANDOM_SEED =                10             1536                0
   IONSTEP:  cpu time      0.0001: real time      0.0001

  ENERGY OF THE ELECTRON-ION-THERMOSTAT SYSTEM (eV)
  ---------------------------------------------------
% ion-electron   TOTEN  =      -189.420024  see above
  kinetic energy EKIN   =         3.393853
  kin. lattice  EKIN_LAT=         0.000000  (temperature  410.25 K)
  nose potential ES     =         0.000000
  nose kinetic   EPS    =         0.000000
  ---------------------------------------------------
  total energy   ETOTAL =      -186.026171 eV



--------------------------------------- Ionic step        4  -------------------------------------------


      MLFF:  cpu time      0.0121: real time      0.0121
     LOOP+:  cpu time      0.0122: real time      0.0122
           RANDOM_SEED =                10             1920                0
   IONSTEP:  cpu time      0.0001: real time      0.0001

  ENERGY OF THE ELECTRON-ION-THERMOSTAT SYSTEM (eV)
  ---------------------------------------------------
% ion-electron   TOTEN  =      -189.631171  see above
  kinetic energy EKIN   =         3.617788
  kin. lattice  EKIN_LAT=         0.000000  (temperature  437.32 K)
  nose potential ES     =         0.000000
  nose kinetic   EPS    =         0.000000
  ---------------------------------------------------
  total energy   ETOTAL =      -186.013383 eV



--------------------------------------- Ionic step        5  -------------------------------------------


      MLFF:  cpu time      0.0121: real time      0.0121
     LOOP+:  cpu time      0.0122: real time      0.0122
           RANDOM_SEED =                10             2304                0
   IONSTEP:  cpu time      0.0001: real time      0.0001

  ENERGY OF THE ELECTRON-ION-THERMOSTAT SYSTEM (eV)
  ---------------------------------------------------
% ion-electron   TOTEN  =      -189.633763  see above
  kinetic energy EKIN   =         3.637100
  kin. lattice  EKIN_LAT=         0.000000  (temperature  439.65 K)
  nose potential ES     =         0.000000
  nose kinetic   EPS    =         0.000000
  ---------------------------------------------------
  total energy   ETOTAL =      -185.996662 eV



--------------------------------------- Ionic step        6  -------------------------------------------


      MLFF:  cpu time      0.0121: real time      0.0121
     LOOP+:  cpu time      0.0122: real time      0.0122
           RANDOM_SEED =                10             2688                0
   IONSTEP:  cpu time      0.0001: real time      0.0001

  ENERGY OF THE ELECTRON-ION-THERMOSTAT SYSTEM (eV)
  ---------------------------------------------------
% ion-electron   TOTEN  =      -189.435353  see above
  kinetic energy EKIN   =         3.422174
  kin. lattice  EKIN_LAT=         0.000000  (temperature  413.67 K)
  nose potential ES     =         0.000000
  nose kinetic   EPS    =         0.000000
  ---------------------------------------------------
  total energy   ETOTAL =      -186.013179 eV



--------------------------------------- Ionic step        7  -------------------------------------------


      MLFF:  cpu time      0.0121: real time      0.0121
     LOOP+:  cpu time      0.0121: real time      0.0121
           RANDOM_SEED =                10             3072                0
   IONSTEP:  cpu time      0.0001: real time      0.0001

  ENERGY OF THE ELECTRON-ION-THERMOSTAT SYSTEM (eV)
  ---------------------------------------------------
% ion-electron   TOTEN  =      -189.240171  see above
  kinetic energy EKIN   =         3.221126
  kin. lattice  EKIN_LAT=         0.000000  (temperature  389.37 K)
  nose potential ES     =         0.000000
  nose kinetic   EPS    =         0.000000
  ---------------------------------------------------
  total energy   ETOTAL =      -186.019046 eV



--------------------------------------- Ionic step        8  -------------------------------------------


      MLFF:  cpu time      0.0122: real time      0.0122
     LOOP+:  cpu time      0.0122: real time      0.0122
           RANDOM_SEED =                10             3456                0
   IONSTEP:  cpu time      0.0001: real time      0.0001

  ENERGY OF THE ELECTRON-ION-THERMOSTAT SYSTEM (eV)
  ---------------------------------------------------
% ion-electron   TOTEN  =      -189.220301  see above
  kinetic energy EKIN   =         3.228460
  kin. lattice  EKIN_LAT=         0.000000  (temperature  390.26 K)
  nose potential ES     =         0.000000
  nose kinetic   EPS    =         0.000000
  ---------------------------------------------------
  total energy   ETOTAL =      -185.991841 eV



--------------------------------------- Ionic step        9  -------------------------------------------


      MLFF:  cpu time      0.0121: real time      0.0121
     LOOP+:  cpu time      0.0122: real time      0.0122
           RANDOM_SEED =                10             3840                0
   IONSTEP:  cpu time      0.0001: real time      0.0001

  ENERGY OF THE ELECTRON-ION-THERMOSTAT SYSTEM (eV)
  ---------------------------------------------------
% ion-electron   TOTEN  =      -189.407668  see above
  kinetic energy EKIN   =         3.399403
  kin. lattice  EKIN_LAT=         0.000000  (temperature  410.92 K)
  nose potential ES     =         0.000000
  nose kinetic   EPS    =         0.000000
  ---------------------------------------------------
  total energy   ETOTAL =      -186.008265 eV



--------------------------------------- Ionic step       10  -------------------------------------------


      MLFF:  cpu time      0.0156: real time      0.0156
     LOOP+:  cpu time      0.0156: real time      0.0156
           RANDOM_SEED =                10             4224                0
   IONSTEP:  cpu time      0.0001: real time      0.0001

  ENERGY OF THE ELECTRON-ION-THERMOSTAT SYSTEM (eV)
  ---------------------------------------------------
% ion-electron   TOTEN  =      -189.657502  see above
  kinetic energy EKIN   =         3.562584
  kin. lattice  EKIN_LAT=         0.000000  (temperature  430.64 K)
  nose potential ES     =         0.000000
  nose kinetic   EPS    =         0.000000
  ---------------------------------------------------
  total energy   ETOTAL =      -186.094919 eV



--------------------------------------- Ionic step       11  -------------------------------------------


      MLFF:  cpu time      0.0127: real time      0.0127
     LOOP+:  cpu time      0.0128: real time      0.0128
           RANDOM_SEED =                10             4608                0
   IONSTEP:  cpu time      0.0001: real time      0.0001

  ENERGY OF THE ELECTRON-ION-THERMOSTAT SYSTEM (eV)
  ---------------------------------------------------
% ion-electron   TOTEN  =      -189.884506  see above
  kinetic energy EKIN   =         3.764165
  kin. lattice  EKIN_LAT=         0.000000  (temperature  455.01 K)
  nose potential ES     =         0.000000
  nose kinetic   EPS    =         0.000000
  ---------------------------------------------------
  total energy   ETOTAL =      -186.120341 eV



--------------------------------------- Ionic step       12  -------------------------------------------


      MLFF:  cpu time      0.0127: real time      0.0127
     LOOP+:  cpu time      0.0128: real time      0.0128
           RANDOM_SEED =                10             4992                0
   IONSTEP:  cpu time      0.0001: real time      0.0001

  ENERGY OF THE ELECTRON-ION-THERMOSTAT SYSTEM (eV)
  ---------------------------------------------------
% ion-electron   TOTEN  =      -189.983651  see above
  kinetic energy EKIN   =         3.896515
  kin. lattice  EKIN_LAT=         0.000000  (temperature  471.01 K)
  nose potential ES     =         0.000000
  nose kinetic   EPS    =         0.000000
  ---------------------------------------------------
  total energy   ETOTAL =      -186.087135 eV



--------------------------------------- Ionic step       13  -------------------------------------------


      MLFF:  cpu time      0.0145: real time      0.0145
     LOOP+:  cpu time      0.0146: real time      0.0146
           RANDOM_SEED =                10             5376                0
   IONSTEP:  cpu time      0.0001: real time      0.0001

  ENERGY OF THE ELECTRON-ION-THERMOSTAT SYSTEM (eV)
  ---------------------------------------------------
% ion-electron   TOTEN  =      -189.903443  see above
  kinetic energy EKIN   =         3.822513
  kin. lattice  EKIN_LAT=         0.000000  (temperature  462.06 K)
  nose potential ES     =         0.000000
  nose kinetic   EPS    =         0.000000
  ---------------------------------------------------
  total energy   ETOTAL =      -186.080930 eV



--------------------------------------- Ionic step       14  -------------------------------------------


      MLFF:  cpu time      0.0123: real time      0.0123
     LOOP+:  cpu time      0.0123: real time      0.0123
           RANDOM_SEED =                10             5760                0
   IONSTEP:  cpu time      0.0001: real time      0.0001

  ENERGY OF THE ELECTRON-ION-THERMOSTAT SYSTEM (eV)
  ---------------------------------------------------
% ion-electron   TOTEN  =      -189.684760  see above
  kinetic energy EKIN   =         3.589882
  kin. lattice  EKIN_LAT=         0.000000  (temperature  433.94 K)
  nose potential ES     =         0.000000
  nose kinetic   EPS    =         0.000000
  ---------------------------------------------------
  total energy   ETOTAL =      -186.094878 eV



--------------------------------------- Ionic step       15  -------------------------------------------


      MLFF:  cpu time      0.0124: real time      0.0124
     LOOP+:  cpu time      0.0124: real time      0.0124
           RANDOM_SEED =                10             6144                0
   IONSTEP:  cpu time      0.0001: real time      0.0001

  ENERGY OF THE ELECTRON-ION-THERMOSTAT SYSTEM (eV)
  ---------------------------------------------------
% ion-electron   TOTEN  =      -189.438154  see above
  kinetic energy EKIN   =         3.337006
  kin. lattice  EKIN_LAT=         0.000000  (temperature  403.38 K)
  nose potential ES     =         0.000000
  nose kinetic   EPS    =         0.000000
  ---------------------------------------------------
  total energy   ETOTAL =      -186.101148 eV



--------------------------------------- Ionic step       16  -------------------------------------------


      MLFF:  cpu time      0.0143: real time      0.0143
     LOOP+:  cpu time      0.0144: real time      0.0144
           RANDOM_SEED =                10             6528                0
   IONSTEP:  cpu time      0.0001: real time      0.0001

  ENERGY OF THE ELECTRON-ION-THERMOSTAT SYSTEM (eV)
  ---------------------------------------------------
% ion-electron   TOTEN  =      -189.271532  see above
  kinetic energy EKIN   =         3.183915
  kin. lattice  EKIN_LAT=         0.000000  (temperature  384.87 K)
  nose potential ES     =         0.000000
  nose kinetic   EPS    =         0.000000
  ---------------------------------------------------
  total energy   ETOTAL =      -186.087617 eV



--------------------------------------- Ionic step       17  -------------------------------------------


      MLFF:  cpu time      0.0122: real time      0.0122
     LOOP+:  cpu time      0.0122: real time      0.0122
           RANDOM_SEED =                10             6912                0
   IONSTEP:  cpu time      0.0001: real time      0.0001

  ENERGY OF THE ELECTRON-ION-THERMOSTAT SYSTEM (eV)
  ---------------------------------------------------
% ion-electron   TOTEN  =      -189.177406  see above
  kinetic energy EKIN   =         3.112616
  kin. lattice  EKIN_LAT=         0.000000  (temperature  376.25 K)
  nose potential ES     =         0.000000
  nose kinetic   EPS    =         0.000000
  ---------------------------------------------------
  total energy   ETOTAL =      -186.064789 eV



--------------------------------------- Ionic step       18  -------------------------------------------


      MLFF:  cpu time      0.0122: real time      0.0143
     LOOP+:  cpu time      0.0123: real time      0.0143
           RANDOM_SEED =                10             7296                0
   IONSTEP:  cpu time      0.0001: real time      0.0001

  ENERGY OF THE ELECTRON-ION-THERMOSTAT SYSTEM (eV)
  ---------------------------------------------------
% ion-electron   TOTEN  =      -189.083397  see above
  kinetic energy EKIN   =         3.039034
  kin. lattice  EKIN_LAT=         0.000000  (temperature  367.36 K)
  nose potential ES     =         0.000000
  nose kinetic   EPS    =         0.000000
  ---------------------------------------------------
  total energy   ETOTAL =      -186.044363 eV



--------------------------------------- Ionic step       19  -------------------------------------------


      MLFF:  cpu time      0.0122: real time      0.0122
     LOOP+:  cpu time      0.0122: real time      0.0122
           RANDOM_SEED =                10             7680                0
   IONSTEP:  cpu time      0.0001: real time      0.0001

  ENERGY OF THE ELECTRON-ION-THERMOSTAT SYSTEM (eV)
  ---------------------------------------------------
% ion-electron   TOTEN  =      -188.940114  see above
  kinetic energy EKIN   =         2.893042
  kin. lattice  EKIN_LAT=         0.000000  (temperature  349.71 K)
  nose potential ES     =         0.000000
  nose kinetic   EPS    =         0.000000
  ---------------------------------------------------
  total energy   ETOTAL =      -186.047072 eV



--------------------------------------- Ionic step       20  -------------------------------------------


      MLFF:  cpu time      0.0121: real time      0.0121
     LOOP+:  cpu time      0.0122: real time      0.0122
           RANDOM_SEED =                10             8064                0
   IONSTEP:  cpu time      0.0001: real time      0.0001

  ENERGY OF THE ELECTRON-ION-THERMOSTAT SYSTEM (eV)
  ---------------------------------------------------
% ion-electron   TOTEN  =      -188.798048  see above
  kinetic energy EKIN   =         2.710086
  kin. lattice  EKIN_LAT=         0.000000  (temperature  327.59 K)
  nose potential ES     =         0.000000
  nose kinetic   EPS    =         0.000000
  ---------------------------------------------------
  total energy   ETOTAL =      -186.087962 eV



--------------------------------------- Ionic step       21  -------------------------------------------


      MLFF:  cpu time      0.0120: real time      0.0120
     LOOP+:  cpu time      0.0120: real time      0.0120
           RANDOM_SEED =                10             8448                0
   IONSTEP:  cpu time      0.0001: real time      0.0001

  ENERGY OF THE ELECTRON-ION-THERMOSTAT SYSTEM (eV)
  ---------------------------------------------------
% ion-electron   TOTEN  =      -188.697082  see above
  kinetic energy EKIN   =         2.556742
  kin. lattice  EKIN_LAT=         0.000000  (temperature  309.06 K)
  nose potential ES     =         0.000000
  nose kinetic   EPS    =         0.000000
  ---------------------------------------------------
  total energy   ETOTAL =      -186.140339 eV



--------------------------------------- Ionic step       22  -------------------------------------------


      MLFF:  cpu time      0.0120: real time      0.0120
     LOOP+:  cpu time      0.0120: real time      0.0120
           RANDOM_SEED =                10             8832                0
   IONSTEP:  cpu time      0.0001: real time      0.0001

  ENERGY OF THE ELECTRON-ION-THERMOSTAT SYSTEM (eV)
  ---------------------------------------------------
% ion-electron   TOTEN  =      -188.683366  see above
  kinetic energy EKIN   =         2.476009
  kin. lattice  EKIN_LAT=         0.000000  (temperature  299.30 K)
  nose potential ES     =         0.000000
  nose kinetic   EPS    =         0.000000
  ---------------------------------------------------
  total energy   ETOTAL =      -186.207357 eV



--------------------------------------- Ionic step       23  -------------------------------------------


      MLFF:  cpu time      0.0122: real time      0.0122
     LOOP+:  cpu time      0.0122: real time      0.0122
           RANDOM_SEED =                10             9216                0
   IONSTEP:  cpu time      0.0001: real time      0.0001

  ENERGY OF THE ELECTRON-ION-THERMOSTAT SYSTEM (eV)
  ---------------------------------------------------
% ion-electron   TOTEN  =      -188.756957  see above
  kinetic energy EKIN   =         2.493071
  kin. lattice  EKIN_LAT=         0.000000  (temperature  301.36 K)
  nose potential ES     =         0.000000
  nose kinetic   EPS    =         0.000000
  ---------------------------------------------------
  total energy   ETOTAL =      -186.263887 eV



--------------------------------------- Ionic step       24  -------------------------------------------


      MLFF:  cpu time      0.0120: real time      0.0120
     LOOP+:  cpu time      0.0120: real time      0.0120
           RANDOM_SEED =                10             9600                0
   IONSTEP:  cpu time      0.0001: real time      0.0001

  ENERGY OF THE ELECTRON-ION-THERMOSTAT SYSTEM (eV)
  ---------------------------------------------------
% ion-electron   TOTEN  =      -188.857325  see above
  kinetic energy EKIN   =         2.580435
  kin. lattice  EKIN_LAT=         0.000000  (temperature  311.92 K)
  nose potential ES     =         0.000000
  nose kinetic   EPS    =         0.000000
  ---------------------------------------------------
  total energy   ETOTAL =      -186.276890 eV



--------------------------------------- Ionic step       25  -------------------------------------------


      MLFF:  cpu time      0.0121: real time      0.0121
     LOOP+:  cpu time      0.0121: real time      0.0121
           RANDOM_SEED =                10             9984                0
   IONSTEP:  cpu time      0.0001: real time      0.0001

  ENERGY OF THE ELECTRON-ION-THERMOSTAT SYSTEM (eV)
  ---------------------------------------------------
% ion-electron   TOTEN  =      -188.951594  see above
  kinetic energy EKIN   =         2.657892
  kin. lattice  EKIN_LAT=         0.000000  (temperature  321.29 K)
  nose potential ES     =         0.000000
  nose kinetic   EPS    =         0.000000
  ---------------------------------------------------
  total energy   ETOTAL =      -186.293702 eV



--------------------------------------- Ionic step       26  -------------------------------------------


      MLFF:  cpu time      0.0121: real time      0.0150
     LOOP+:  cpu time      0.0122: real time      0.0151
           RANDOM_SEED =                10            10368                0
   IONSTEP:  cpu time      0.0001: real time      0.0001

  ENERGY OF THE ELECTRON-ION-THERMOSTAT SYSTEM (eV)
  ---------------------------------------------------
% ion-electron   TOTEN  =      -189.046306  see above
  kinetic energy EKIN   =         2.709380
  kin. lattice  EKIN_LAT=         0.000000  (temperature  327.51 K)
  nose potential ES     =         0.000000
  nose kinetic   EPS    =         0.000000
  ---------------------------------------------------
  total energy   ETOTAL =      -186.336927 eV



--------------------------------------- Ionic step       27  -------------------------------------------


      MLFF:  cpu time      0.0122: real time      0.0122
     LOOP+:  cpu time      0.0123: real time      0.0123
           RANDOM_SEED =                10            10752                0
   IONSTEP:  cpu time      0.0001: real time      0.0001

  ENERGY OF THE ELECTRON-ION-THERMOSTAT SYSTEM (eV)
  ---------------------------------------------------
% ion-electron   TOTEN  =      -189.141561  see above
  kinetic energy EKIN   =         2.775975
  kin. lattice  EKIN_LAT=         0.000000  (temperature  335.56 K)
  nose potential ES     =         0.000000
  nose kinetic   EPS    =         0.000000
  ---------------------------------------------------
  total energy   ETOTAL =      -186.365586 eV



--------------------------------------- Ionic step       28  -------------------------------------------


      MLFF:  cpu time      0.0122: real time      0.0122
     LOOP+:  cpu time      0.0123: real time      0.0123
           RANDOM_SEED =                10            11136                0
   IONSTEP:  cpu time      0.0001: real time      0.0001

  ENERGY OF THE ELECTRON-ION-THERMOSTAT SYSTEM (eV)
  ---------------------------------------------------
% ion-electron   TOTEN  =      -189.214142  see above
  kinetic energy EKIN   =         2.847812
  kin. lattice  EKIN_LAT=         0.000000  (temperature  344.24 K)
  nose potential ES     =         0.000000
  nose kinetic   EPS    =         0.000000
  ---------------------------------------------------
  total energy   ETOTAL =      -186.366330 eV



--------------------------------------- Ionic step       29  -------------------------------------------


      MLFF:  cpu time      0.0121: real time      0.0121
     LOOP+:  cpu time      0.0122: real time      0.0122
           RANDOM_SEED =                10            11520                0
   IONSTEP:  cpu time      0.0001: real time      0.0001

  ENERGY OF THE ELECTRON-ION-THERMOSTAT SYSTEM (eV)
  ---------------------------------------------------
% ion-electron   TOTEN  =      -189.232738  see above
  kinetic energy EKIN   =         2.855321
  kin. lattice  EKIN_LAT=         0.000000  (temperature  345.15 K)
  nose potential ES     =         0.000000
  nose kinetic   EPS    =         0.000000
  ---------------------------------------------------
  total energy   ETOTAL =      -186.377418 eV



--------------------------------------- Ionic step       30  -------------------------------------------


      MLFF:  cpu time      0.0121: real time      0.0121
     LOOP+:  cpu time      0.0121: real time      0.0121
           RANDOM_SEED =                10            11904                0
   IONSTEP:  cpu time      0.0001: real time      0.0001

  ENERGY OF THE ELECTRON-ION-THERMOSTAT SYSTEM (eV)
  ---------------------------------------------------
% ion-electron   TOTEN  =      -189.197219  see above
  kinetic energy EKIN   =         2.855877
  kin. lattice  EKIN_LAT=         0.000000  (temperature  345.22 K)
  nose potential ES     =         0.000000
  nose kinetic   EPS    =         0.000000
  ---------------------------------------------------
  total energy   ETOTAL =      -186.341343 eV



--------------------------------------- Ionic step       31  -------------------------------------------


      MLFF:  cpu time      0.0120: real time      0.0120
     LOOP+:  cpu time      0.0121: real time      0.0121
           RANDOM_SEED =                10            12288                0
   IONSTEP:  cpu time      0.0001: real time      0.0001

  ENERGY OF THE ELECTRON-ION-THERMOSTAT SYSTEM (eV)
  ---------------------------------------------------
% ion-electron   TOTEN  =      -189.134700  see above
  kinetic energy EKIN   =         2.843880
  kin. lattice  EKIN_LAT=         0.000000  (temperature  343.77 K)
  nose potential ES     =         0.000000
  nose kinetic   EPS    =         0.000000
  ---------------------------------------------------
  total energy   ETOTAL =      -186.290821 eV



--------------------------------------- Ionic step       32  -------------------------------------------


      MLFF:  cpu time      0.0119: real time      0.0119
     LOOP+:  cpu time      0.0120: real time      0.0120
           RANDOM_SEED =                10            12672                0
   IONSTEP:  cpu time      0.0001: real time      0.0001

  ENERGY OF THE ELECTRON-ION-THERMOSTAT SYSTEM (eV)
  ---------------------------------------------------
% ion-electron   TOTEN  =      -189.155255  see above
  kinetic energy EKIN   =         2.879600
  kin. lattice  EKIN_LAT=         0.000000  (temperature  348.09 K)
  nose potential ES     =         0.000000
  nose kinetic   EPS    =         0.000000
  ---------------------------------------------------
  total energy   ETOTAL =      -186.275655 eV



--------------------------------------- Ionic step       33  -------------------------------------------


      MLFF:  cpu time      0.0120: real time      0.0120
     LOOP+:  cpu time      0.0121: real time      0.0121
           RANDOM_SEED =                10            13056                0
   IONSTEP:  cpu time      0.0001: real time      0.0001

  ENERGY OF THE ELECTRON-ION-THERMOSTAT SYSTEM (eV)
  ---------------------------------------------------
% ion-electron   TOTEN  =      -189.269434  see above
  kinetic energy EKIN   =         3.011880
  kin. lattice  EKIN_LAT=         0.000000  (temperature  364.08 K)
  nose potential ES     =         0.000000
  nose kinetic   EPS    =         0.000000
  ---------------------------------------------------
  total energy   ETOTAL =      -186.257553 eV



--------------------------------------- Ionic step       34  -------------------------------------------


      MLFF:  cpu time      0.0121: real time      0.0121
     LOOP+:  cpu time      0.0121: real time      0.0121
           RANDOM_SEED =                10            13440                0
   IONSTEP:  cpu time      0.0001: real time      0.0001

  ENERGY OF THE ELECTRON-ION-THERMOSTAT SYSTEM (eV)
  ---------------------------------------------------
% ion-electron   TOTEN  =      -189.495812  see above
  kinetic energy EKIN   =         3.233576
  kin. lattice  EKIN_LAT=         0.000000  (temperature  390.87 K)
  nose potential ES     =         0.000000
  nose kinetic   EPS    =         0.000000
  ---------------------------------------------------
  total energy   ETOTAL =      -186.262236 eV



--------------------------------------- Ionic step       35  -------------------------------------------


      MLFF:  cpu time      0.0147: real time      0.0147
     LOOP+:  cpu time      0.0148: real time      0.0148
           RANDOM_SEED =                10            13824                0
   IONSTEP:  cpu time      0.0001: real time      0.0001

  ENERGY OF THE ELECTRON-ION-THERMOSTAT SYSTEM (eV)
  ---------------------------------------------------
% ion-electron   TOTEN  =      -189.743480  see above
  kinetic energy EKIN   =         3.450369
  kin. lattice  EKIN_LAT=         0.000000  (temperature  417.08 K)
  nose potential ES     =         0.000000
  nose kinetic   EPS    =         0.000000
  ---------------------------------------------------
  total energy   ETOTAL =      -186.293111 eV



--------------------------------------- Ionic step       36  -------------------------------------------


      MLFF:  cpu time      0.0121: real time      0.0121
     LOOP+:  cpu time      0.0122: real time      0.0122
           RANDOM_SEED =                10            14208                0
   IONSTEP:  cpu time      0.0001: real time      0.0001

  ENERGY OF THE ELECTRON-ION-THERMOSTAT SYSTEM (eV)
  ---------------------------------------------------
% ion-electron   TOTEN  =      -189.942840  see above
  kinetic energy EKIN   =         3.646973
  kin. lattice  EKIN_LAT=         0.000000  (temperature  440.84 K)
  nose potential ES     =         0.000000
  nose kinetic   EPS    =         0.000000
  ---------------------------------------------------
  total energy   ETOTAL =      -186.295867 eV



--------------------------------------- Ionic step       37  -------------------------------------------


      MLFF:  cpu time      0.0121: real time      0.0121
     LOOP+:  cpu time      0.0121: real time      0.0121
           RANDOM_SEED =                10            14592                0
   IONSTEP:  cpu time      0.0001: real time      0.0001

  ENERGY OF THE ELECTRON-ION-THERMOSTAT SYSTEM (eV)
  ---------------------------------------------------
% ion-electron   TOTEN  =      -190.006766  see above
  kinetic energy EKIN   =         3.686298
  kin. lattice  EKIN_LAT=         0.000000  (temperature  445.60 K)
  nose potential ES     =         0.000000
  nose kinetic   EPS    =         0.000000
  ---------------------------------------------------
  total energy   ETOTAL =      -186.320468 eV



--------------------------------------- Ionic step       38  -------------------------------------------


      MLFF:  cpu time      0.0126: real time      0.0126
     LOOP+:  cpu time      0.0127: real time      0.0127
           RANDOM_SEED =                10            14976                0
   IONSTEP:  cpu time      0.0001: real time      0.0001

  ENERGY OF THE ELECTRON-ION-THERMOSTAT SYSTEM (eV)
  ---------------------------------------------------
% ion-electron   TOTEN  =      -189.894058  see above
  kinetic energy EKIN   =         3.540879
  kin. lattice  EKIN_LAT=         0.000000  (temperature  428.02 K)
  nose potential ES     =         0.000000
  nose kinetic   EPS    =         0.000000
  ---------------------------------------------------
  total energy   ETOTAL =      -186.353179 eV



--------------------------------------- Ionic step       39  -------------------------------------------


      MLFF:  cpu time      0.0133: real time      0.0133
     LOOP+:  cpu time      0.0133: real time      0.0133
           RANDOM_SEED =                10            15360                0
   IONSTEP:  cpu time      0.0001: real time      0.0001

  ENERGY OF THE ELECTRON-ION-THERMOSTAT SYSTEM (eV)
  ---------------------------------------------------
% ion-electron   TOTEN  =      -189.650176  see above
  kinetic energy EKIN   =         3.305906
  kin. lattice  EKIN_LAT=         0.000000  (temperature  399.62 K)
  nose potential ES     =         0.000000
  nose kinetic   EPS    =         0.000000
  ---------------------------------------------------
  total energy   ETOTAL =      -186.344270 eV



--------------------------------------- Ionic step       40  -------------------------------------------


      MLFF:  cpu time      0.0136: real time      0.0136
     LOOP+:  cpu time      0.0136: real time      0.0136
           RANDOM_SEED =                10            15744                0
   IONSTEP:  cpu time      0.0001: real time      0.0001

  ENERGY OF THE ELECTRON-ION-THERMOSTAT SYSTEM (eV)
  ---------------------------------------------------
% ion-electron   TOTEN  =      -189.358842  see above
  kinetic energy EKIN   =         3.024093
  kin. lattice  EKIN_LAT=         0.000000  (temperature  365.55 K)
  nose potential ES     =         0.000000
  nose kinetic   EPS    =         0.000000
  ---------------------------------------------------
  total energy   ETOTAL =      -186.334749 eV



--------------------------------------- Ionic step       41  -------------------------------------------


      MLFF:  cpu time      0.0128: real time      0.0128
     LOOP+:  cpu time      0.0129: real time      0.0129
           RANDOM_SEED =                10            16128                0
   IONSTEP:  cpu time      0.0001: real time      0.0001

  ENERGY OF THE ELECTRON-ION-THERMOSTAT SYSTEM (eV)
  ---------------------------------------------------
% ion-electron   TOTEN  =      -189.122631  see above
  kinetic energy EKIN   =         2.772659
  kin. lattice  EKIN_LAT=         0.000000  (temperature  335.16 K)
  nose potential ES     =         0.000000
  nose kinetic   EPS    =         0.000000
  ---------------------------------------------------
  total energy   ETOTAL =      -186.349972 eV



--------------------------------------- Ionic step       42  -------------------------------------------


      MLFF:  cpu time      0.0122: real time      0.0122
     LOOP+:  cpu time      0.0123: real time      0.0123
           RANDOM_SEED =                10            16512                0
   IONSTEP:  cpu time      0.0001: real time      0.0001

  ENERGY OF THE ELECTRON-ION-THERMOSTAT SYSTEM (eV)
  ---------------------------------------------------
% ion-electron   TOTEN  =      -189.075960  see above
  kinetic energy EKIN   =         2.724542
  kin. lattice  EKIN_LAT=         0.000000  (temperature  329.34 K)
  nose potential ES     =         0.000000
  nose kinetic   EPS    =         0.000000
  ---------------------------------------------------
  total energy   ETOTAL =      -186.351418 eV



--------------------------------------- Ionic step       43  -------------------------------------------


      MLFF:  cpu time      0.0122: real time      0.0122
     LOOP+:  cpu time      0.0122: real time      0.0122
           RANDOM_SEED =                10            16896                0
   IONSTEP:  cpu time      0.0001: real time      0.0001

  ENERGY OF THE ELECTRON-ION-THERMOSTAT SYSTEM (eV)
  ---------------------------------------------------
% ion-electron   TOTEN  =      -189.217005  see above
  kinetic energy EKIN   =         2.858645
  kin. lattice  EKIN_LAT=         0.000000  (temperature  345.55 K)
  nose potential ES     =         0.000000
  nose kinetic   EPS    =         0.000000
  ---------------------------------------------------
  total energy   ETOTAL =      -186.358360 eV



--------------------------------------- Ionic step       44  -------------------------------------------


      MLFF:  cpu time      0.0125: real time      0.0125
     LOOP+:  cpu time      0.0126: real time      0.0126
           RANDOM_SEED =                10            17280                0
   IONSTEP:  cpu time      0.0001: real time      0.0001

  ENERGY OF THE ELECTRON-ION-THERMOSTAT SYSTEM (eV)
  ---------------------------------------------------
% ion-electron   TOTEN  =      -189.454247  see above
  kinetic energy EKIN   =         3.026622
  kin. lattice  EKIN_LAT=         0.000000  (temperature  365.86 K)
  nose potential ES     =         0.000000
  nose kinetic   EPS    =         0.000000
  ---------------------------------------------------
  total energy   ETOTAL =      -186.427625 eV



--------------------------------------- Ionic step       45  -------------------------------------------


      MLFF:  cpu time      0.0122: real time      0.0122
     LOOP+:  cpu time      0.0123: real time      0.0123
           RANDOM_SEED =                10            17664                0
   IONSTEP:  cpu time      0.0001: real time      0.0001

  ENERGY OF THE ELECTRON-ION-THERMOSTAT SYSTEM (eV)
  ---------------------------------------------------
% ion-electron   TOTEN  =      -189.692304  see above
  kinetic energy EKIN   =         3.188062
  kin. lattice  EKIN_LAT=         0.000000  (temperature  385.37 K)
  nose potential ES     =         0.000000
  nose kinetic   EPS    =         0.000000
  ---------------------------------------------------
  total energy   ETOTAL =      -186.504243 eV



--------------------------------------- Ionic step       46  -------------------------------------------


[...]
  kin. lattice  EKIN_LAT=         0.000000  (temperature  318.77 K)
  nose potential ES     =         0.000000
  nose kinetic   EPS    =         0.000000
  ---------------------------------------------------
  total energy   ETOTAL =      -187.383115 eV



--------------------------------------- Ionic step      987  -------------------------------------------


      MLFF:  cpu time      0.0121: real time      0.0173
     LOOP+:  cpu time      0.0122: real time      0.0174
           RANDOM_SEED =                10           379392                0
   IONSTEP:  cpu time      0.0001: real time      0.0001

  ENERGY OF THE ELECTRON-ION-THERMOSTAT SYSTEM (eV)
  ---------------------------------------------------
% ion-electron   TOTEN  =      -189.965847  see above
  kinetic energy EKIN   =         2.543420
  kin. lattice  EKIN_LAT=         0.000000  (temperature  307.45 K)
  nose potential ES     =         0.000000
  nose kinetic   EPS    =         0.000000
  ---------------------------------------------------
  total energy   ETOTAL =      -187.422427 eV



--------------------------------------- Ionic step      988  -------------------------------------------


      MLFF:  cpu time      0.0121: real time      0.0121
     LOOP+:  cpu time      0.0122: real time      0.0122
           RANDOM_SEED =                10           379776                0
   IONSTEP:  cpu time      0.0001: real time      0.0001

  ENERGY OF THE ELECTRON-ION-THERMOSTAT SYSTEM (eV)
  ---------------------------------------------------
% ion-electron   TOTEN  =      -189.951217  see above
  kinetic energy EKIN   =         2.479597
  kin. lattice  EKIN_LAT=         0.000000  (temperature  299.73 K)
  nose potential ES     =         0.000000
  nose kinetic   EPS    =         0.000000
  ---------------------------------------------------
  total energy   ETOTAL =      -187.471620 eV



--------------------------------------- Ionic step      989  -------------------------------------------


      MLFF:  cpu time      0.0121: real time      0.0121
     LOOP+:  cpu time      0.0122: real time      0.0122
           RANDOM_SEED =                10           380160                0
   IONSTEP:  cpu time      0.0001: real time      0.0001

  ENERGY OF THE ELECTRON-ION-THERMOSTAT SYSTEM (eV)
  ---------------------------------------------------
% ion-electron   TOTEN  =      -189.964561  see above
  kinetic energy EKIN   =         2.481059
  kin. lattice  EKIN_LAT=         0.000000  (temperature  299.91 K)
  nose potential ES     =         0.000000
  nose kinetic   EPS    =         0.000000
  ---------------------------------------------------
  total energy   ETOTAL =      -187.483501 eV



--------------------------------------- Ionic step      990  -------------------------------------------


      MLFF:  cpu time      0.0121: real time      0.0121
     LOOP+:  cpu time      0.0121: real time      0.0121
           RANDOM_SEED =                10           380544                0
   IONSTEP:  cpu time      0.0001: real time      0.0001

  ENERGY OF THE ELECTRON-ION-THERMOSTAT SYSTEM (eV)
  ---------------------------------------------------
% ion-electron   TOTEN  =      -189.998191  see above
  kinetic energy EKIN   =         2.514506
  kin. lattice  EKIN_LAT=         0.000000  (temperature  303.95 K)
  nose potential ES     =         0.000000
  nose kinetic   EPS    =         0.000000
  ---------------------------------------------------
  total energy   ETOTAL =      -187.483684 eV



--------------------------------------- Ionic step      991  -------------------------------------------


      MLFF:  cpu time      0.0121: real time      0.0121
     LOOP+:  cpu time      0.0122: real time      0.0122
           RANDOM_SEED =                10           380928                0
   IONSTEP:  cpu time      0.0001: real time      0.0001

  ENERGY OF THE ELECTRON-ION-THERMOSTAT SYSTEM (eV)
  ---------------------------------------------------
% ion-electron   TOTEN  =      -190.044511  see above
  kinetic energy EKIN   =         2.570167
  kin. lattice  EKIN_LAT=         0.000000  (temperature  310.68 K)
  nose potential ES     =         0.000000
  nose kinetic   EPS    =         0.000000
  ---------------------------------------------------
  total energy   ETOTAL =      -187.474344 eV



--------------------------------------- Ionic step      992  -------------------------------------------


      MLFF:  cpu time      0.0121: real time      0.0121
     LOOP+:  cpu time      0.0121: real time      0.0121
           RANDOM_SEED =                10           381312                0
   IONSTEP:  cpu time      0.0001: real time      0.0001

  ENERGY OF THE ELECTRON-ION-THERMOSTAT SYSTEM (eV)
  ---------------------------------------------------
% ion-electron   TOTEN  =      -190.090673  see above
  kinetic energy EKIN   =         2.643704
  kin. lattice  EKIN_LAT=         0.000000  (temperature  319.57 K)
  nose potential ES     =         0.000000
  nose kinetic   EPS    =         0.000000
  ---------------------------------------------------
  total energy   ETOTAL =      -187.446970 eV



--------------------------------------- Ionic step      993  -------------------------------------------


      MLFF:  cpu time      0.0143: real time      0.0143
     LOOP+:  cpu time      0.0143: real time      0.0143
           RANDOM_SEED =                10           381696                0
   IONSTEP:  cpu time      0.0001: real time      0.0001

  ENERGY OF THE ELECTRON-ION-THERMOSTAT SYSTEM (eV)
  ---------------------------------------------------
% ion-electron   TOTEN  =      -190.119904  see above
  kinetic energy EKIN   =         2.703451
  kin. lattice  EKIN_LAT=         0.000000  (temperature  326.79 K)
  nose potential ES     =         0.000000
  nose kinetic   EPS    =         0.000000
  ---------------------------------------------------
  total energy   ETOTAL =      -187.416453 eV



--------------------------------------- Ionic step      994  -------------------------------------------


      MLFF:  cpu time      0.0122: real time      0.0122
     LOOP+:  cpu time      0.0123: real time      0.0123
           RANDOM_SEED =                10           382080                0
   IONSTEP:  cpu time      0.0001: real time      0.0001

  ENERGY OF THE ELECTRON-ION-THERMOSTAT SYSTEM (eV)
  ---------------------------------------------------
% ion-electron   TOTEN  =      -190.121736  see above
  kinetic energy EKIN   =         2.728739
  kin. lattice  EKIN_LAT=         0.000000  (temperature  329.85 K)
  nose potential ES     =         0.000000
  nose kinetic   EPS    =         0.000000
  ---------------------------------------------------
  total energy   ETOTAL =      -187.392997 eV



--------------------------------------- Ionic step      995  -------------------------------------------


      MLFF:  cpu time      0.0122: real time      0.0124
     LOOP+:  cpu time      0.0123: real time      0.0125
           RANDOM_SEED =                10           382464                0
   IONSTEP:  cpu time      0.0001: real time      0.0001

  ENERGY OF THE ELECTRON-ION-THERMOSTAT SYSTEM (eV)
  ---------------------------------------------------
% ion-electron   TOTEN  =      -190.055508  see above
  kinetic energy EKIN   =         2.677923
  kin. lattice  EKIN_LAT=         0.000000  (temperature  323.71 K)
  nose potential ES     =         0.000000
  nose kinetic   EPS    =         0.000000
  ---------------------------------------------------
  total energy   ETOTAL =      -187.377586 eV



--------------------------------------- Ionic step      996  -------------------------------------------


      MLFF:  cpu time      0.0126: real time      0.0126
     LOOP+:  cpu time      0.0126: real time      0.0126
           RANDOM_SEED =                10           382848                0
   IONSTEP:  cpu time      0.0001: real time      0.0001

  ENERGY OF THE ELECTRON-ION-THERMOSTAT SYSTEM (eV)
  ---------------------------------------------------
% ion-electron   TOTEN  =      -189.935680  see above
  kinetic energy EKIN   =         2.580711
  kin. lattice  EKIN_LAT=         0.000000  (temperature  311.96 K)
  nose potential ES     =         0.000000
  nose kinetic   EPS    =         0.000000
  ---------------------------------------------------
  total energy   ETOTAL =      -187.354969 eV



--------------------------------------- Ionic step      997  -------------------------------------------


      MLFF:  cpu time      0.0123: real time      0.0123
     LOOP+:  cpu time      0.0123: real time      0.0123
           RANDOM_SEED =                10           383232                0
   IONSTEP:  cpu time      0.0001: real time      0.0001

  ENERGY OF THE ELECTRON-ION-THERMOSTAT SYSTEM (eV)
  ---------------------------------------------------
% ion-electron   TOTEN  =      -189.807780  see above
  kinetic energy EKIN   =         2.487136
  kin. lattice  EKIN_LAT=         0.000000  (temperature  300.64 K)
  nose potential ES     =         0.000000
  nose kinetic   EPS    =         0.000000
  ---------------------------------------------------
  total energy   ETOTAL =      -187.320644 eV



--------------------------------------- Ionic step      998  -------------------------------------------


      MLFF:  cpu time      0.0123: real time      0.0123
     LOOP+:  cpu time      0.0124: real time      0.0124
           RANDOM_SEED =                10           383616                0
   IONSTEP:  cpu time      0.0001: real time      0.0001

  ENERGY OF THE ELECTRON-ION-THERMOSTAT SYSTEM (eV)
  ---------------------------------------------------
% ion-electron   TOTEN  =      -189.714357  see above
  kinetic energy EKIN   =         2.431146
  kin. lattice  EKIN_LAT=         0.000000  (temperature  293.88 K)
  nose potential ES     =         0.000000
  nose kinetic   EPS    =         0.000000
  ---------------------------------------------------
  total energy   ETOTAL =      -187.283211 eV



--------------------------------------- Ionic step      999  -------------------------------------------


      MLFF:  cpu time      0.0123: real time      0.0123
     LOOP+:  cpu time      0.0124: real time      0.0124
           RANDOM_SEED =                10           384000                0
   IONSTEP:  cpu time      0.0001: real time      0.0001

  ENERGY OF THE ELECTRON-ION-THERMOSTAT SYSTEM (eV)
  ---------------------------------------------------
% ion-electron   TOTEN  =      -189.648139  see above
  kinetic energy EKIN   =         2.374162
  kin. lattice  EKIN_LAT=         0.000000  (temperature  286.99 K)
  nose potential ES     =         0.000000
  nose kinetic   EPS    =         0.000000
  ---------------------------------------------------
  total energy   ETOTAL =      -187.273976 eV



--------------------------------------- Ionic step     1000  -------------------------------------------



  ML FORCE on cell =-STRESS in cart. coord. units (eV/cell)
  Direction    XX          YY          ZZ          XY          YZ          ZX
  --------------------------------------------------------------------------------------
  Total:    -22.58170   -20.85434   -21.21596    -0.45311    -0.12803     0.16067
  in kB     -69.24684   -63.94990   -65.05881    -1.38946    -0.39260     0.49269
  external pressure =      -66.09 kB  Pullay stress =        0.00 kB

  kinetic pressure (ideal gas correction) =      4.93 kB
  total pressure  =    -61.15 kB
  Total+kin.   -64.010     -58.480     -60.962      -0.589       0.097      -0.058
  volume of cell :      522.48
      direct lattice vectors                 reciprocal lattice vectors
     8.054200000  0.000000000  0.000000000     0.124158824  0.000000000  0.000000000
     0.000000000  8.054200000  0.000000000     0.000000000  0.124158824  0.000000000
     0.000000000  0.000000000  8.054200000     0.000000000  0.000000000  0.124158824

  length of vectors
     8.054200000  8.054200000  8.054200000     0.124158824  0.124158824  0.124158824


  POSITION                                       TOTAL-FORCE (eV/Angst) (ML)
 -----------------------------------------------------------------------------------
      6.92382      6.31767      7.25086        -0.025778      0.988875     -0.122804
      6.75929      6.55146      3.18534         0.123108      0.109606     -0.465615
      7.01766      2.58348      7.06402        -0.220302     -0.231132      0.072301
      6.99342      2.53480      3.30564        -0.302802     -0.135484     -0.616608
      2.83292      6.61556      7.20571         0.081036     -0.075304     -0.510160
      2.96915      6.68696      2.96924        -0.503224     -0.176993      0.356332
      2.90934      2.50890      7.11087         0.063937      0.278955     -0.164600
      2.68848      2.55028      3.10653         0.444791      0.246868      0.026674
      2.86846      4.59991      1.00778         0.050668      0.290528      0.235800
      2.72781      4.80349      5.15915         0.554331     -0.482092     -0.141470
      2.79073      0.36985      0.91291         0.144029      0.952200      0.411539
      2.90544      0.42040      5.09450        -0.052378      0.589837     -0.088414
      6.94580      4.52931      1.23520        -0.306169      0.008995     -0.180303
      7.05469      4.58735      5.04368        -0.444799     -0.118740      0.147226
      6.86104      0.65621      0.93215         0.210778     -0.186235      0.360485
      6.96404      0.49468      5.01777        -0.038971      0.156627      0.310320
      0.86581      2.70746      0.93210         0.123711     -0.466611      0.385323
      0.88939      2.61049      5.17752         0.206418     -0.121423     -0.265438
      0.79079      6.74698      1.07877        -0.244084     -0.107134      0.159246
      0.73382      6.47106      4.93904         0.330609      0.667744      0.432664
      4.78860      2.69577      1.00409         0.412429     -0.363497      0.303729
      4.97489      2.31777      5.01308        -0.371864      0.764681      0.173611
      4.77863      6.65988      1.09700         0.499657     -0.262116     -0.342899
      4.97957      6.63350      5.16004        -0.238810     -0.174239      0.046080
      0.74012      4.55480      2.99997         0.452828      0.142117      0.047878
      0.80834      4.59951      7.23195         0.522602      0.163645     -0.227628
      0.73207      0.45563      3.06868         0.405343      0.502054     -0.167431
      0.89615      0.54536      6.91892        -0.162146     -0.151476      0.328226
      4.86242      4.49922      3.23448        -0.139004     -0.110029     -0.334034
      5.08443      4.47843      7.17012        -0.420276      0.299606     -0.326767
      4.89521      0.55465      2.90580        -0.067983      0.119009      0.295615
      5.05493      0.64656      7.03023        -0.259105     -0.318077      0.289369
      0.82077      4.79204      1.06006         0.081872     -0.435604      0.057457
      0.92310      4.68601      4.87070        -0.273650     -0.267237      0.427817
      0.96842      0.77723      1.13833        -0.237367     -0.384654     -0.150362
      0.91047      0.67070      4.91896        -0.080845     -0.255034      0.450356
      4.93602      4.59747      1.22757         0.002585      0.043916     -0.396854
      5.18902      4.67611      4.98188        -0.372312     -0.056494      0.517993
      4.86491      0.66287      1.03164        -0.040099     -0.229768     -0.094292
      4.89814      0.56036      5.14623         0.063085     -0.342148     -0.147121
      0.89596      2.41446      7.09603        -0.025372      0.526080     -0.077248
      0.79575      2.58890      3.06944         0.098086      0.178769     -0.006034
      0.79016      6.68455      7.27574         0.144171     -0.244115     -0.477288
      0.72158      6.68662      3.15321         0.134417     -0.273171     -0.340776
      5.01696      2.58675      7.06268        -0.079480     -0.009801      0.034081
      4.81083      2.37610      3.13101         0.194003      0.511653     -0.125525
      5.01230      6.58310      7.13086        -0.256649     -0.067247      0.091321
      4.77739      6.48521      2.94533         0.308951      0.407483      0.306861
      2.85907      4.68786      7.10284        -0.020281     -0.034886     -0.000453
      2.93487      4.69746      3.13707        -0.286473     -0.119732     -0.145634
      2.90977      0.65056      7.16716         0.005589     -0.359087     -0.285309
      2.90169      0.76189      3.08653        -0.048682     -0.763381     -0.106401
      7.09040      4.55332      7.03704        -0.293584     -0.238507      0.039322
      6.82510      4.40863      3.11443         0.273873      0.323796     -0.014314
      6.93104      0.37335      7.17436         0.105287      0.320247     -0.336967
      6.93785      0.63606      3.11987        -0.284995     -0.263829     -0.161667
      2.61916      6.65805      0.96865         0.650993     -0.174170      0.372979
      2.87260      6.70315      5.16255        -0.040140     -0.266436     -0.090898
      3.02079      2.86105      0.87497        -0.551027     -0.484833      0.337292
      2.89074      2.66695      5.25246        -0.041047     -0.050943     -0.369936
      6.92696      6.53995      1.13248        -0.229136      0.087277      0.075490
      6.87483      6.73973      5.10501         0.181348     -0.492606     -0.020581
      7.00649      2.50906      0.92184        -0.153109      0.401876      0.206510
      6.89156      2.46683      5.15211         0.241408      0.211823      0.001934
 -----------------------------------------------------------------------------------
    total drift:                                0.000000     -0.000000     -0.000000


--------------------------------------------------------------------------------------------------------



  ML FREE ENERGIE OF THE ION-ELECTRON SYSTEM (eV)
  ---------------------------------------------------
  free  energy ML TOTEN  =      -189.62684856 eV

  ML energy  without entropy=     -189.62684856  ML energy(sigma->0) =     -189.62684856

      MLFF:  cpu time      0.0128: real time      0.0128
     LOOP+:  cpu time      0.0128: real time      0.0128
           RANDOM_SEED =                10           384384                0
   IONSTEP:  cpu time      0.0020: real time      0.0020

  ENERGY OF THE ELECTRON-ION-THERMOSTAT SYSTEM (eV)
  ---------------------------------------------------
% ion-electron   TOTEN  =      -189.626849  see above
  kinetic energy EKIN   =         2.361122
  kin. lattice  EKIN_LAT=         0.000000  (temperature  285.41 K)
  nose potential ES     =         0.000000
  nose kinetic   EPS    =         0.000000
  ---------------------------------------------------
  total energy   ETOTAL =      -187.265727 eV


 mean value of Nose-termostat <S>:     1.000 mean value of <T> :   307.352
 mean temperature <T/S>/<1/S>  :   307.352

      MLFF:  cpu time      0.0031: real time      0.0031
     LOOP+:  cpu time      0.0051: real time      0.0051

 total amount of memory used by VASP MPI-rank0    30000. kBytes
=======================================================================

   base      :      30000. kBytes
 
  
  
 General timing and accounting informations for this job:
 ========================================================
  
                  Total CPU time used (sec):       13.440
                            User time (sec):       13.143
                          System time (sec):        0.297
                         Elapsed time (sec):       13.862
  
                   Maximum memory used (kb):      196608.
                   Average memory used (kb):          N/A
  
                          Minor page faults:        42719
                          Major page faults:         3639
                 Voluntary context switches:           38
